# vtk DataFile Version 2.0
Finite-element dataset: variable: displacement, timestep: 0
ASCII

DATASET UNSTRUCTURED_GRID
POINTS 397 float
0 0 -1650 
0 0 -1460 
190 0 -1650 
0 0 -1840 
-190 0 -1650 
760 0 -2790 
760 0 -2600 
950 0 -2790 
750.65 0 -2983.01 
570 0 -2790 
380 0 -2790 
380 0 -2980 
190 0 -2790 
380 0 -2600 
380 0 -2410 
380 0 -2220 
570 0 -2410 
190 0 -2410 
-380 0 -2790 
-386.906 0 -2993.13 
-570 0 -2790 
-380 0 -2600 
-190 0 -2790 
-1710 0 -2790 
-1711.07 0 -2996.18 
-1900 0 -2980 
-2000 0 -2790 
0 0 -2410 
0 0 -2600 
-4.26326e-14 0 -2220 
-190 0 -2410 
-2000 0 -2600 
-1805.41 0 -2599.92 
-2000 0 -2980 
570 0 -2980 
717.921 0 -3157.81 
771.617 0 -3300 
665 0 -3300 
574.457 0 -3170.4 
950 0 -2980 
956.346 0 -3300 
-1140 0 -2790 
-950 0 -2790 
-1140 0 -2980 
-1140 0 -2600 
-1330 0 -2790 
-380 0 -2410 
-570 0 -2410 
760 0 -2410 
760 0 -2220 
-380 0 -2220 
950 0 -2410 
-1140 0 -2410 
-1330 0 -2410 
-1140 0 -2220 
-950 0 -2410 
5.37597 0 -3300 
-190 0 -3300 
-185.059 0 -3078.14 
1.13687e-13 0 -2980 
-760 0 -2790 
-760 0 -2980 
214.977 0 -3005.45 
185.002 0 -3170.38 
-760 0 -2600 
190 0 -3300 
-1140 0 0 
-1326.97 0 -219.478 
-1330 0 0 
-1520 0 -2980 
-1344.88 0 -2991.77 
-1335.45 0 -3164.3 
-949.549 0 -226.426 
-1140 0 -320 
-1441.29 0 -3300 
-1620.93 0 -3300 
-1751.45 0 -3125.82 
-950 0 0 
1140 0 -2790 
1142.37 0 -2981.04 
1140 0 -2600 
-1710 0 -3300 
1330 0 -2790 
-380 0 0 
-190 0 0 
-187.563 0 -233.84 
1520 0 -2030 
1710 0 -2030 
1520 0 -2220 
1520 0 -1840 
1330 0 -2030 
-380 0 -320 
-566.023 0 -230.298 
1140 0 -2410 
1140 0 -2220 
1330 0 -2410 
1520 0 -2980 
1719.03 0 -2986.14 
1722.4 0 -3170.8 
-570 0 0 
1475.16 0 -3300 
2000 0 -2790 
1900.16 0 -2606.99 
2000 0 -2600 
1710 0 -3300 
-760 0 -510 
-950 0 -510 
-760 0 -320 
-570 0 -510 
-760 0 -700 
1323.41 0 -3161.19 
1332.92 0 -2997.47 
1900 0 -2980 
1710 0 -2790 
1710 0 -2600 
-1140 0 -510 
-1140 0 -700 
-1330 0 -510 
2000 0 -2980 
-1140 0 -890 
-950 0 -890 
-1140 0 -1080 
1520 0 -2600 
1330 0 -2600 
-1330 0 -890 
1710 0 -2410 
1140 0 -2030 
1140 0 -1840 
-1520 0 -1270 
-1710 0 -1270 
-1520 0 -1080 
950 0 -2030 
-1520 0 -1460 
-1330 0 -1270 
-1520 0 -510 
-1520 0 -700 
0 0 0 
190 0 0 
210.544 0 -130.768 
-1710 0 -510 
-1520 0 -320 
0 0 -320 
182.766 0 -313.637 
-1520 0 -1650 
-1520 0 -1840 
-1710 0 -1650 
-1890.36 0 -494.859 
-2000 0 -594.531 
-2000 0 -416.182 
-1330 0 -1650 
-1900 0 -320 
-1877.09 0 -702.957 
1330 0 -890 
1140 0 -700 
1330 0 -700 
-1716.01 0 -318.744 
1330 0 -1080 
1140 0 -1080 
-2000 0 -2386.09 
1520 0 -1650 
1520 0 -1460 
1715.91 0 -1648.09 
1520 0 -700 
1330 0 -510 
1330 0 -1650 
1808.25 0 -696.668 
1715.8 0 -891.258 
-1710 0 -2410 
1710 0 -510 
-1900.82 0 -146.848 
-2000 0 0 
-1808.03 0 0 
1520 0 -1080 
1330 0 -1270 
-2000 0 -215.88 
1710 0 -1080 
1710 0 -1270 
-1815.16 0 -2214.87 
-1716.26 0 -152.35 
-2000 0 -2220 
1724.37 0 -132.351 
1710 0 -320 
1520 0 -320 
1508.63 0 0 
-2000 0 -2016.75 
-2000 0 -1246.21 
-1817.32 0 -1452.6 
-2000 0 -1460 
1330.37 0 -231.007 
-2000 0 -1840 
-1804.62 0 -1831.58 
1330 0 0 
-2000 0 -1080 
-1829.55 0 -1076.8 
1710 0 0 
5.68434e-14 0 -890 
0 0 -700 
190 0 -890 
-1710 0 -2030 
-190 0 -890 
760 0 -320 
570 0 -510 
569.927 0 -221.512 
0 0 -1080 
949.611 0 -261.114 
950 0 -510 
760 0 -1650 
760 0 -1840 
570 0 -1650 
-1140 0 -2030 
-950 0 -2030 
760 0 -1460 
-2000 0 -890 
-2000 0 -700 
-1140 0 -1840 
950 0 -1650 
-1330 0 -2030 
190 0 -1080 
380 0 -1080 
-760 0 -1650 
-570 0 -1650 
-760 0 -1840 
190 0 -700 
380 0 -700 
1746.86 0 -2239.15 
1896.23 0 -2211.79 
-950 0 -1650 
190 0 -510 
-760 0 -1460 
379.904 0 -313.205 
-380 0 -1650 
-380 0 -1460 
2000 0 -2409.83 
2000 0 -2220 
-380 0 -1840 
-1710 0 -890 
-1716.34 0 -700.059 
-190 0 -510 
-1140 0 -1650 
190 0 -1270 
-1140 0 -1460 
190 0 -1460 
2000 0 -156.51 
1900 0 -320 
760 0 -700 
570 0 -700 
-1520.67 0 0 
2000 0 -320 
950 0 -700 
-760 0 -2030 
-760 0 -2220 
1900 0 0 
570 0 -890 
-190 0 -700 
-570 0 -2030 
950 0 -890 
950 0 -1080 
-380 0 -700 
2000 0 -2036.46 
1807.68 0 -1840.03 
2000 0 -1840 
760 0 -1080 
760 0 -2030 
570 0 -2030 
2000 0 0 
-190 0 -1080 
-190 0 -1270 
-380 0 -1080 
380 0 -1650 
380 0 -1840 
570 0 -1270 
570 0 -1080 
380 0 -1460 
950 0 -1270 
1130.42 0 0 
950 0 0 
-950 0 -1080 
-760 0 -1080 
1140 0 -1650 
1140 0 -320 
-950 0 -700 
1140 0 -1460 
-570 0 -700 
570 0 -1460 
950 0 -1460 
-570 0 -890 
1330 0 -1840 
760 0 -1270 
1330 0 -1460 
1520 0 -1270 
1520 0 -510 
0 0 -1270 
1140 0 -510 
-1520 0 -2030 
-1520 0 -2220 
-1520 0 -890 
0 0 -510 
190 0 -2030 
190 0 -1840 
2000 0 -3155.77 
2000 0 -3300 
1900 0 -3300 
380 0 -890 
-769.816 0 0 
369.304 0 0 
380 0 -1270 
-1330 0 -1080 
950 0 -1840 
570 0 0 
570 0 -1840 
-1330 0 -700 
570 0 -2220 
380 0 -2030 
1151.55 0 -3170.73 
1235 0 -3300 
1324.23 0 -3300 
1140 0 -3300 
-380 0 -2030 
-190 0 -2030 
1520 0 -2790 
2000 0 -510 
950 0 -2220 
-760 0 -890 
-2000 0 -3157.52 
2000 0 -700 
-570 0 -2220 
-570 0 -1840 
2000 0 -1665.75 
2000 0 -1543.03 
-950 0 -2220 
-1900 0 -3300 
-2000 0 -3300 
-1330 0 -1460 
-1520 0 -2790 
-1520 0 -2600 
1330 0 -2220 
-1330 0 -1840 
-1235 0 -3300 
-1330 0 -3300 
-1140 0 -3170 
-950 0 -3170 
-190 0 -1840 
760 0 -890 
-2000 0 -1626.17 
-1045 0 -3300 
-950 0 -1270 
-570 0 -1080 
-570 0 -1270 
-950 0 -1840 
771.886 0 0 
-427.017 0 -3300 
950 0 -2600 
1140 0 -1270 
-570.855 0 -3160.61 
-567.342 0 -2997.58 
-950 0 -1460 
760 0 -510 
-570 0 -1460 
1520 0 -890 
0 0 -2790 
1710 0 -1460 
1140 0 -890 
-190 0 -1460 
2000 0 -1002.37 
1900.21 0 -1087.68 
-190 0 -2600 
2000 0 -1179.5 
1900.23 0 -1451.86 
380 0 -510 
367.142 0 -3300 
570 0 -3300 
190 0 -2600 
-1710 0 0 
1900 0 -1270 
2000 0 -1360.14 
-950 0 -2600 
2000 0 -876.59 
-1330 0 -2220 
-950 0 -2980 
-855 0 -3300 
0 0 -2030 
-572.876 0 -3300 
-570 0 -2600 
-665 0 -3300 
-1330 0 -2600 
-190 0 -2220 
-380 0 -890 
190 0 -2220 
-760 0 -1270 
1520 0 -2410 
-1140 0 -1270 
570 0 -2600 
-380 0 -510 
-760 0 -2410 
-380 0 -1270 
-1520 0 -2410 
-760 0 -3170 

CELLS 707 2828
3 0 1 2 
3 0 2 3 
3 0 3 4 
3 0 4 1 
3 5 6 7 
3 5 8 9 
3 5 7 8 
3 5 9 6 
3 10 11 12 
3 10 12 13 
3 10 9 11 
3 10 13 9 
3 14 15 16 
3 14 13 17 
3 14 16 13 
3 14 17 15 
3 18 19 20 
3 18 21 22 
3 18 22 19 
3 18 20 21 
3 23 24 25 
3 23 25 26 
3 27 17 28 
3 27 29 17 
3 27 30 29 
3 27 28 30 
3 26 31 32 
3 26 25 33 
3 34 8 35 
3 35 36 37 
3 32 23 26 
3 35 37 38 
3 39 40 35 
3 35 40 36 
3 41 42 43 
3 41 44 42 
3 41 43 45 
3 41 45 44 
3 46 30 21 
3 46 21 47 
3 48 16 49 
3 46 50 30 
3 48 49 51 
3 46 47 50 
3 48 6 16 
3 52 53 54 
3 48 51 6 
3 52 54 55 
3 56 57 58 
3 52 55 44 
3 52 44 53 
3 58 59 56 
3 60 61 42 
3 59 62 63 
3 60 64 20 
3 59 63 56 
3 60 42 64 
3 60 20 61 
3 56 63 65 
3 66 67 68 
3 69 70 71 
3 72 73 66 
3 74 75 69 
3 73 67 66 
3 76 24 69 
3 66 77 72 
3 76 69 75 
3 78 79 7 
3 78 7 80 
3 75 81 76 
3 78 82 79 
3 78 80 82 
3 83 84 85 
3 86 87 88 
3 86 89 87 
3 74 69 71 
3 86 88 90 
3 86 90 89 
3 91 92 83 
3 93 51 94 
3 93 94 95 
3 85 91 83 
3 96 97 98 
3 93 80 51 
3 83 92 99 
3 96 98 100 
3 93 95 80 
3 101 102 103 
3 100 98 104 
3 105 106 107 
3 105 107 108 
3 105 108 109 
3 110 111 96 
3 112 97 113 
3 105 109 106 
3 113 114 102 
3 115 73 106 
3 96 100 110 
3 113 102 101 
3 115 106 116 
3 112 113 101 
3 115 116 117 
3 101 118 112 
3 115 117 73 
3 119 120 121 
3 122 82 123 
3 119 116 120 
3 122 114 113 
3 119 121 124 
3 122 125 114 
3 126 90 94 
3 119 124 116 
3 122 123 95 
3 126 127 90 
3 128 129 130 
3 126 131 127 
3 128 132 129 
3 126 94 131 
3 128 130 133 
3 128 133 132 
3 134 117 135 
3 136 137 138 
3 134 135 139 
3 134 140 117 
3 134 139 140 
3 136 85 84 
3 141 85 136 
3 138 142 141 
3 138 141 136 
3 143 144 145 
3 146 147 148 
3 143 132 149 
3 146 148 150 
3 143 145 132 
3 146 151 147 
3 152 153 154 
3 143 149 144 
3 146 150 155 
3 152 156 157 
3 158 32 31 
3 159 160 161 
3 146 139 151 
3 162 154 163 
3 159 164 160 
3 162 165 166 
3 159 89 164 
3 162 152 154 
3 167 32 158 
3 159 161 89 
3 162 168 165 
3 169 170 171 
3 172 173 156 
3 169 150 174 
3 172 175 176 
3 177 167 158 
3 169 178 150 
3 172 156 152 
3 169 171 178 
3 172 166 175 
3 158 179 177 
3 180 181 182 
3 169 174 170 
3 180 182 183 
3 184 177 179 
3 185 186 187 
3 182 188 183 
3 184 189 190 
3 183 188 191 
3 185 192 193 
3 183 194 180 
3 193 129 185 
3 195 196 197 
3 198 177 184 
3 195 199 196 
3 129 186 185 
3 200 201 202 
3 195 197 203 
3 200 204 205 
3 195 203 199 
3 190 198 184 
3 206 207 208 
3 209 210 54 
3 206 208 211 
3 212 213 151 
3 209 214 210 
3 206 211 215 
3 209 54 216 
3 206 215 207 
3 217 197 218 
3 209 216 214 
3 219 220 221 
3 222 223 197 
3 125 224 225 
3 219 221 226 
3 227 223 222 
3 219 226 228 
3 227 142 229 
3 219 228 220 
3 212 193 192 
3 141 142 227 
3 230 220 231 
3 196 222 197 
3 232 225 233 
3 230 234 220 
3 235 193 212 
3 196 227 222 
3 230 4 234 
3 151 236 235 
3 237 85 141 
3 102 114 125 
3 230 231 4 
3 151 235 212 
3 237 91 85 
3 102 125 232 
3 238 214 149 
3 239 217 218 
3 125 225 232 
3 238 240 226 
3 1 239 241 
3 238 226 214 
3 242 243 180 
3 244 245 201 
3 203 197 217 
3 232 103 102 
3 67 140 246 
3 238 149 240 
3 242 247 243 
3 244 205 248 
3 203 217 239 
3 140 155 178 
3 249 250 210 
3 242 180 251 
3 244 252 245 
3 253 237 196 
3 249 221 254 
3 255 157 256 
3 253 257 237 
3 258 259 260 
3 249 210 221 
3 255 256 261 
3 253 199 257 
3 225 224 87 
3 249 254 250 
3 255 248 153 
3 253 196 199 
3 246 140 178 
3 262 263 207 
3 242 251 264 
3 255 244 248 
3 265 266 267 
3 262 131 49 
3 265 203 266 
3 246 68 67 
3 262 49 263 
3 265 267 199 
3 87 259 258 
3 262 207 131 
3 265 199 203 
3 225 87 258 
3 268 208 269 
3 270 218 271 
3 258 233 225 
3 268 272 208 
3 273 256 157 
3 268 2 272 
3 274 204 275 
3 120 276 121 
3 261 270 271 
3 268 269 2 
3 120 277 276 
3 261 256 273 
3 278 164 127 
3 279 204 274 
3 120 116 280 
3 261 271 252 
3 278 215 281 
3 188 279 274 
3 109 108 282 
3 283 270 211 
3 278 281 164 
3 109 120 280 
3 284 211 273 
3 278 127 215 
3 109 282 285 
3 127 286 90 
3 287 261 273 
3 274 191 188 
3 109 280 106 
3 164 288 160 
3 287 273 211 
3 164 286 127 
3 289 176 160 
3 287 211 270 
3 290 163 182 
3 164 89 286 
3 289 172 176 
3 287 270 261 
3 290 168 162 
3 215 211 284 
3 289 173 172 
3 291 203 239 
3 290 162 163 
3 281 215 284 
3 289 160 173 
3 291 266 203 
3 290 182 168 
3 281 284 273 
3 292 153 205 
3 291 1 266 
3 293 294 198 
3 281 288 164 
3 292 163 153 
3 291 239 1 
3 293 198 144 
3 281 173 288 
3 292 279 163 
3 295 124 130 
3 296 237 141 
3 293 216 294 
3 269 297 298 
3 292 205 279 
3 295 135 124 
3 296 227 196 
3 293 144 216 
3 2 1 241 
3 295 235 135 
3 296 141 227 
3 2 269 298 
3 295 130 235 
3 296 196 237 
3 299 300 301 
3 2 298 3 
3 302 197 223 
3 208 283 211 
3 92 107 303 
3 302 252 218 
3 299 112 118 
3 272 283 208 
3 302 223 252 
3 272 241 239 
3 107 92 108 
3 202 229 304 
3 107 72 303 
3 302 218 197 
3 299 98 112 
3 272 2 241 
3 107 106 72 
3 229 142 138 
3 305 270 272 
3 272 270 283 
3 130 306 133 
3 229 138 304 
3 303 99 92 
3 305 272 239 
3 307 215 127 
3 130 129 193 
3 304 308 202 
3 305 218 270 
3 299 301 98 
3 309 269 208 
3 135 117 310 
3 304 138 137 
3 305 239 218 
3 263 311 15 
3 135 236 139 
3 312 15 297 
3 313 110 314 
3 263 269 309 
3 124 310 116 
3 110 79 111 
3 303 72 77 
3 312 297 269 
3 313 79 110 
3 207 263 309 
3 124 306 130 
3 110 315 314 
3 312 269 263 
3 313 314 316 
3 207 309 208 
3 124 121 306 
3 110 100 315 
3 312 263 15 
3 313 40 39 
3 207 215 307 
3 124 135 310 
3 168 181 243 
3 317 254 234 
3 313 316 40 
3 131 307 127 
3 235 236 135 
3 317 234 318 
3 319 96 82 
3 131 207 307 
3 235 130 193 
3 168 243 320 
3 317 318 50 
3 319 122 113 
3 131 94 321 
3 145 186 132 
3 317 50 254 
3 319 113 96 
3 49 311 263 
3 320 243 247 
3 98 97 112 
3 319 82 122 
3 49 16 311 
3 98 301 104 
3 322 277 120 
3 49 131 321 
3 322 285 277 
3 323 33 25 
3 49 321 51 
3 320 324 165 
3 322 120 109 
3 254 50 325 
3 322 109 285 
3 323 25 76 
3 221 326 254 
3 186 129 132 
3 165 168 320 
3 327 161 328 
3 210 329 54 
3 327 260 259 
3 323 76 330 
3 250 254 325 
3 76 81 330 
3 323 330 331 
3 250 329 210 
3 76 25 24 
3 259 161 327 
3 250 55 329 
3 250 325 47 
3 149 132 332 
3 333 23 334 
3 240 149 332 
3 91 108 92 
3 333 334 45 
3 240 332 133 
3 280 116 106 
3 94 335 95 
3 71 70 43 
3 333 45 69 
3 214 216 336 
3 67 73 117 
3 51 321 94 
3 71 337 338 
3 333 69 23 
3 214 336 149 
3 133 332 132 
3 88 95 335 
3 71 338 74 
3 339 43 340 
3 4 3 341 
3 121 133 306 
3 88 224 125 
3 342 255 261 
3 343 187 186 
3 339 340 344 
3 220 326 221 
3 276 277 345 
3 90 335 94 
3 342 261 252 
3 339 344 337 
3 234 326 220 
3 276 345 121 
3 90 88 335 
3 342 244 255 
3 145 190 343 
3 339 71 43 
3 234 341 318 
3 346 347 277 
3 90 286 89 
3 342 252 244 
3 186 145 343 
3 339 337 71 
3 234 254 326 
3 257 282 108 
3 87 224 88 
3 343 190 189 
3 234 4 341 
3 285 346 277 
3 87 89 259 
3 348 214 226 
3 285 282 257 
3 80 95 123 
3 349 202 308 
3 348 210 214 
3 267 346 285 
3 82 80 123 
3 350 58 57 
3 348 221 210 
3 267 347 346 
3 82 111 79 
3 349 275 204 
3 348 226 221 
3 351 80 7 
3 352 281 273 
3 69 45 70 
3 353 354 19 
3 355 226 240 
3 351 51 80 
3 354 61 20 
3 352 273 157 
3 69 24 23 
3 355 240 345 
3 313 39 79 
3 19 354 20 
3 352 157 173 
3 355 345 228 
3 39 7 79 
3 22 58 19 
3 352 173 281 
3 19 58 350 
3 355 228 226 
3 356 200 205 
3 202 201 229 
3 204 200 349 
3 357 347 231 
3 356 244 201 
3 279 205 204 
3 357 231 220 
3 356 201 200 
3 153 248 205 
3 200 202 349 
3 19 350 353 
3 357 220 228 
3 140 67 117 
3 356 205 244 
3 59 58 22 
3 163 279 188 
3 358 172 152 
3 359 22 28 
3 357 228 347 
3 140 139 155 
3 161 160 360 
3 361 152 157 
3 59 12 62 
3 358 162 166 
3 359 12 59 
3 362 231 266 
3 161 259 89 
3 361 255 153 
3 358 152 162 
3 359 59 22 
3 362 4 231 
3 363 364 166 
3 361 157 255 
3 154 153 163 
3 358 166 172 
3 359 28 12 
3 362 266 1 
3 365 21 30 
3 361 153 152 
3 176 175 364 
3 362 1 4 
3 366 364 363 
3 367 360 176 
3 365 22 21 
3 368 201 223 
3 156 173 157 
3 34 35 38 
3 148 174 150 
3 367 161 360 
3 368 227 229 
3 11 62 12 
3 369 38 370 
3 38 37 370 
3 178 155 150 
3 368 229 201 
3 13 371 17 
3 28 371 12 
3 178 372 246 
3 368 223 227 
3 13 12 371 
3 369 65 63 
3 28 17 371 
3 178 171 372 
3 373 374 367 
3 28 22 365 
3 180 243 181 
3 373 364 366 
3 11 34 38 
3 28 365 30 
3 180 194 251 
3 373 366 374 
3 288 173 160 
3 11 38 369 
3 151 213 147 
3 373 367 176 
3 63 62 11 
3 70 45 43 
3 373 176 364 
3 63 11 369 
3 375 64 42 
3 376 363 166 
3 55 64 375 
3 54 329 55 
3 376 165 324 
3 54 377 216 
3 340 378 61 
3 139 236 151 
3 54 53 377 
3 328 161 367 
3 340 379 344 
3 146 155 139 
3 44 375 42 
3 380 297 29 
3 340 43 378 
3 117 116 310 
3 44 55 375 
3 380 318 3 
3 353 350 381 
3 382 20 64 
3 166 165 376 
3 328 367 374 
3 380 3 297 
3 353 381 383 
3 175 166 364 
3 21 20 382 
3 6 351 7 
3 380 29 318 
3 353 61 354 
3 47 325 50 
3 6 51 351 
3 3 298 297 
3 334 32 167 
3 72 106 73 
3 47 382 64 
3 8 7 39 
3 341 3 318 
3 334 53 384 
3 182 163 188 
3 47 21 382 
3 39 35 8 
3 334 384 45 
3 182 181 168 
3 385 318 29 
3 9 34 11 
3 334 23 32 
3 360 160 176 
3 144 198 190 
3 386 267 285 
3 385 30 50 
3 387 17 29 
3 9 8 34 
3 294 216 377 
3 144 190 145 
3 386 285 257 
3 385 29 30 
3 387 29 297 
3 294 167 177 
3 144 336 216 
3 386 199 267 
3 385 50 318 
3 15 17 387 
3 294 177 198 
3 144 149 336 
3 386 257 199 
3 378 42 61 
3 15 387 297 
3 294 377 53 
3 96 113 97 
3 388 228 345 
3 378 43 42 
3 311 16 15 
3 389 125 122 
3 96 111 82 
3 388 277 347 
3 384 53 44 
3 389 95 88 
3 223 201 245 
3 388 345 277 
3 384 44 45 
3 389 88 125 
3 252 223 245 
3 388 347 228 
3 389 122 95 
3 252 271 218 
3 390 133 121 
3 390 345 240 
3 391 9 13 
3 390 121 345 
3 391 6 9 
3 390 240 133 
3 391 13 16 
3 392 91 237 
3 391 16 6 
3 392 257 108 
3 392 108 91 
3 393 47 64 
3 392 237 257 
3 393 55 250 
3 394 266 231 
3 393 250 47 
3 394 231 347 
3 393 64 55 
3 394 267 266 
3 394 347 267 
3 395 334 167 
3 395 167 294 
3 395 294 53 
3 395 53 334 
3 396 383 379 
3 396 340 61 
3 396 379 340 
3 396 353 383 
3 396 61 353 

CELL_TYPES 707
5
5
5
5
5
5
5
5
5
5
5
5
5
5
5
5
5
5
5
5
5
5
5
5
5
5
5
5
5
5
5
5
5
5
5
5
5
5
5
5
5
5
5
5
5
5
5
5
5
5
5
5
5
5
5
5
5
5
5
5
5
5
5
5
5
5
5
5
5
5
5
5
5
5
5
5
5
5
5
5
5
5
5
5
5
5
5
5
5
5
5
5
5
5
5
5
5
5
5
5
5
5
5
5
5
5
5
5
5
5
5
5
5
5
5
5
5
5
5
5
5
5
5
5
5
5
5
5
5
5
5
5
5
5
5
5
5
5
5
5
5
5
5
5
5
5
5
5
5
5
5
5
5
5
5
5
5
5
5
5
5
5
5
5
5
5
5
5
5
5
5
5
5
5
5
5
5
5
5
5
5
5
5
5
5
5
5
5
5
5
5
5
5
5
5
5
5
5
5
5
5
5
5
5
5
5
5
5
5
5
5
5
5
5
5
5
5
5
5
5
5
5
5
5
5
5
5
5
5
5
5
5
5
5
5
5
5
5
5
5
5
5
5
5
5
5
5
5
5
5
5
5
5
5
5
5
5
5
5
5
5
5
5
5
5
5
5
5
5
5
5
5
5
5
5
5
5
5
5
5
5
5
5
5
5
5
5
5
5
5
5
5
5
5
5
5
5
5
5
5
5
5
5
5
5
5
5
5
5
5
5
5
5
5
5
5
5
5
5
5
5
5
5
5
5
5
5
5
5
5
5
5
5
5
5
5
5
5
5
5
5
5
5
5
5
5
5
5
5
5
5
5
5
5
5
5
5
5
5
5
5
5
5
5
5
5
5
5
5
5
5
5
5
5
5
5
5
5
5
5
5
5
5
5
5
5
5
5
5
5
5
5
5
5
5
5
5
5
5
5
5
5
5
5
5
5
5
5
5
5
5
5
5
5
5
5
5
5
5
5
5
5
5
5
5
5
5
5
5
5
5
5
5
5
5
5
5
5
5
5
5
5
5
5
5
5
5
5
5
5
5
5
5
5
5
5
5
5
5
5
5
5
5
5
5
5
5
5
5
5
5
5
5
5
5
5
5
5
5
5
5
5
5
5
5
5
5
5
5
5
5
5
5
5
5
5
5
5
5
5
5
5
5
5
5
5
5
5
5
5
5
5
5
5
5
5
5
5
5
5
5
5
5
5
5
5
5
5
5
5
5
5
5
5
5
5
5
5
5
5
5
5
5
5
5
5
5
5
5
5
5
5
5
5
5
5
5
5
5
5
5
5
5
5
5
5
5
5
5
5
5
5
5
5
5
5
5
5
5
5
5
5
5
5
5
5
5
5
5
5
5
5
5
5
5
5
5
5
5
5
5
5
5
5
5
5
5
5
5
5
5
5
5
5
5
5
5
5
5
5
5
5
5
5
5
5
5
5
5
5
5
5
5
5
5
5
5
5
5
5
5
5
5
5
5
5
5
5
5
5
5
5
5
5
5
5
5
5
5
5
5
5
5
5
5
5
5
5
5
5
5
5
5
5
5
5
5
5
5
5
5
5
5
5
5
5
5
5
5
5
5
5
5
5
5
5
5
5
5
5
5
5
5
5
5
5
5

POINT_DATA 397
VECTORS displacement float
3.900138e-04 -1.626757e-03 -1.968973e-01 
4.220708e-04 -3.028441e-03 -1.947599e-01 
2.289076e-04 -1.673543e-03 -1.965205e-01 
3.710387e-04 -2.639492e-04 -1.947288e-01 
5.315732e-04 -1.515006e-03 -1.964142e-01 
1.063339e-02 5.871835e-03 -9.318103e-02 
1.122194e-02 5.132649e-03 -1.200724e-01 
1.331921e-02 5.804933e-03 -8.903585e-02 
8.534891e-03 6.125086e-03 -6.174322e-02 
8.214569e-03 6.153504e-03 -9.707133e-02 
5.453879e-03 6.051850e-03 -9.901899e-02 
4.488101e-03 6.493094e-03 -6.646296e-02 
2.844061e-03 6.196717e-03 -1.005505e-01 
5.851080e-03 5.244922e-03 -1.277530e-01 
5.335715e-03 3.974369e-03 -1.507700e-01 
4.455617e-03 2.657638e-03 -1.696939e-01 
7.904413e-03 4.039674e-03 -1.474774e-01 
2.837735e-03 3.950915e-03 -1.533952e-01 
-5.186626e-03 5.889625e-03 -9.880465e-02 
-4.148003e-03 6.118005e-03 -6.365181e-02 
-7.928537e-03 5.908020e-03 -9.684053e-02 
-5.469303e-03 5.067276e-03 -1.274800e-01 
-2.646076e-03 6.205828e-03 -1.005719e-01 
-1.238138e-02 2.905731e-03 -4.383339e-02 
-1.059759e-02 3.059702e-03 -3.041087e-02 
-5.570074e-03 1.698010e-03 -1.274565e-02 
-1.000000e-05 0.000000e+00 0.000000e+00 
2.224211e-04 3.861368e-03 -1.535320e-01 
1.428151e-04 5.165703e-03 -1.299610e-01 
2.964651e-04 2.532659e-03 -1.729356e-01 
-2.380803e-03 3.866710e-03 -1.532189e-01 
-1.000000e-05 0.000000e+00 0.000000e+00 
-8.023213e-03 2.337235e-03 -3.625276e-02 
-1.000000e-05 0.000000e+00 0.000000e+00 
6.461971e-03 6.310829e-03 -6.448270e-02 
4.203072e-03 4.470134e-03 -2.910527e-02 
0.000000e+00 0.000000e+00 -1.000000e-05 
0.000000e+00 0.000000e+00 -1.000000e-05 
3.056031e-03 4.731122e-03 -2.735501e-02 
1.102324e-02 6.043356e-03 -5.967264e-02 
0.000000e+00 0.000000e+00 -1.000000e-05 
-1.414474e-02 4.884730e-03 -8.132945e-02 
-1.277769e-02 5.384462e-03 -8.850325e-02 
-1.223107e-02 5.348983e-03 -5.525087e-02 
-1.453830e-02 4.205820e-03 -1.037828e-01 
-1.555220e-02 4.440782e-03 -7.272516e-02 
-4.865970e-03 3.817958e-03 -1.504448e-01 
-7.426137e-03 3.820132e-03 -1.470060e-01 
1.000138e-02 3.966605e-03 -1.411693e-01 
8.225829e-03 2.752273e-03 -1.584540e-01 
-3.920672e-03 2.572864e-03 -1.693402e-01 
1.210998e-02 3.924512e-03 -1.334834e-01 
-1.252359e-02 3.298005e-03 -1.208647e-01 
-1.317485e-02 3.059923e-03 -1.061328e-01 
-1.013972e-02 2.407458e-03 -1.348561e-01 
-1.157598e-02 3.555443e-03 -1.327999e-01 
0.000000e+00 0.000000e+00 -1.000000e-05 
0.000000e+00 0.000000e+00 -1.000000e-05 
-1.571078e-03 6.198242e-03 -4.764825e-02 
-7.552616e-05 6.461911e-03 -6.715669e-02 
-1.022295e-02 5.594662e-03 -9.296033e-02 
-8.478657e-03 6.103503e-03 -6.241222e-02 
2.355428e-03 6.236811e-03 -6.149984e-02 
9.193747e-04 4.869490e-03 -2.817729e-02 
-1.073755e-02 4.822176e-03 -1.196079e-01 
0.000000e+00 0.000000e+00 -1.000000e-05 
0.000000e+00 0.000000e+00 1.000000e-05 
1.074730e-02 -5.069223e-03 -3.551857e-02 
0.000000e+00 0.000000e+00 1.000000e-05 
-1.388836e-02 4.473767e-03 -4.219452e-02 
-1.257793e-02 4.461986e-03 -4.693409e-02 
-6.964301e-03 3.297112e-03 -2.218699e-02 
8.336714e-03 -6.354147e-03 -4.338667e-02 
1.269109e-02 -6.082797e-03 -5.584993e-02 
0.000000e+00 0.000000e+00 -1.000000e-05 
0.000000e+00 0.000000e+00 -1.000000e-05 
-8.089986e-03 2.339583e-03 -1.779590e-02 
0.000000e+00 0.000000e+00 1.000000e-05 
1.461184e-02 5.328708e-03 -8.179745e-02 
1.239151e-02 5.608783e-03 -5.518423e-02 
1.506979e-02 4.713229e-03 -1.044109e-01 
0.000000e+00 0.000000e+00 -1.000000e-05 
1.600785e-02 4.948926e-03 -7.318695e-02 
0.000000e+00 0.000000e+00 1.000000e-05 
0.000000e+00 0.000000e+00 1.000000e-05 
1.773053e-03 -7.463593e-03 -5.020279e-02 
6.237156e-03 1.259707e-03 -9.982193e-02 
4.788116e-03 1.065577e-03 -6.783754e-02 
9.631570e-03 2.259000e-03 -9.454010e-02 
3.154816e-03 3.706054e-04 -1.037981e-01 
7.222819e-03 1.371768e-03 -1.256056e-01 
4.512898e-03 -7.536213e-03 -6.658104e-02 
5.278434e-03 -6.953660e-03 -4.768946e-02 
1.303771e-02 3.712615e-03 -1.215768e-01 
1.061242e-02 2.638320e-03 -1.355884e-01 
1.363409e-02 3.504786e-03 -1.067785e-01 
1.427425e-02 4.355231e-03 -4.226715e-02 
1.043046e-02 3.369754e-03 -3.016381e-02 
6.998665e-03 2.667042e-03 -1.504336e-02 
0.000000e+00 0.000000e+00 1.000000e-05 
0.000000e+00 0.000000e+00 -1.000000e-05 
1.000000e-05 0.000000e+00 0.000000e+00 
4.755421e-03 1.529239e-03 -1.990301e-02 
1.000000e-05 0.000000e+00 0.000000e+00 
0.000000e+00 0.000000e+00 -1.000000e-05 
1.091990e-02 -7.270145e-03 -9.341635e-02 
1.351191e-02 -7.032118e-03 -8.898832e-02 
9.127226e-03 -6.997694e-03 -6.288938e-02 
8.593720e-03 -7.832473e-03 -9.732388e-02 
1.156978e-02 -6.935625e-03 -1.200009e-01 
7.127532e-03 3.662569e-03 -2.307519e-02 
1.264107e-02 4.767879e-03 -4.661395e-02 
5.854926e-03 1.997044e-03 -1.303969e-02 
1.233563e-02 3.524629e-03 -4.380040e-02 
1.051371e-02 2.990645e-03 -5.188101e-02 
1.478663e-02 -6.224388e-03 -8.184670e-02 
1.529531e-02 -5.872970e-03 -1.042057e-01 
1.619168e-02 -5.675270e-03 -7.323188e-02 
1.000000e-05 0.000000e+00 0.000000e+00 
1.338395e-02 -4.958859e-03 -1.211886e-01 
1.254635e-02 -5.555644e-03 -1.331219e-01 
1.112045e-02 -3.953574e-03 -1.350704e-01 
1.456557e-02 3.865703e-03 -7.515869e-02 
1.508243e-02 4.283031e-03 -9.150464e-02 
1.386585e-02 -4.403097e-03 -1.063926e-01 
9.553114e-03 2.542796e-03 -5.945536e-02 
7.059153e-03 1.396823e-03 -1.444996e-01 
3.531605e-03 1.621259e-04 -1.506364e-01 
6.646076e-03 -1.999109e-03 -9.952349e-02 
5.006955e-03 -1.484912e-03 -6.696533e-02 
1.000936e-02 -2.939510e-03 -9.454019e-02 
6.649983e-03 1.410345e-03 -1.596843e-01 
3.690952e-03 -1.114319e-03 -1.035674e-01 
7.809548e-03 -2.399888e-03 -1.251457e-01 
1.463594e-02 -4.683820e-03 -6.005617e-02 
1.457506e-02 -4.354758e-03 -7.491363e-02 
0.000000e+00 0.000000e+00 1.000000e-05 
0.000000e+00 0.000000e+00 1.000000e-05 
-1.026323e-03 -5.317611e-03 -2.870532e-02 
1.204022e-02 -3.631973e-03 -4.295433e-02 
1.407501e-02 -4.787332e-03 -4.246671e-02 
2.350197e-04 -7.791712e-03 -6.781404e-02 
-1.748619e-03 -7.620208e-03 -6.558325e-02 
3.446656e-04 -2.863014e-04 -1.040469e-01 
-2.979013e-03 5.066884e-04 -1.034892e-01 
2.558224e-04 -1.739046e-04 -6.993119e-02 
5.643584e-03 -1.584228e-03 -1.767095e-02 
-1.000000e-05 0.000000e+00 0.000000e+00 
-1.000000e-05 0.000000e+00 0.000000e+00 
4.729616e-04 -4.316161e-04 -1.312698e-01 
5.398476e-03 -1.488174e-03 -1.308116e-02 
5.579979e-03 -1.860771e-03 -2.411946e-02 
-1.381624e-02 -4.971197e-03 -1.062940e-01 
-1.512754e-02 -6.373669e-03 -1.041438e-01 
-1.519013e-02 -5.650878e-03 -9.123368e-02 
1.079337e-02 -3.756710e-03 -3.056028e-02 
-1.067253e-02 -3.960278e-03 -1.168993e-01 
-1.092310e-02 -4.553275e-03 -1.350897e-01 
-1.000000e-05 0.000000e+00 0.000000e+00 
-2.104412e-04 -5.414971e-04 -1.041588e-01 
-3.543805e-03 -1.442567e-03 -1.032341e-01 
-2.611542e-04 -2.505996e-04 -6.935069e-02 
-1.469313e-02 -4.890842e-03 -7.516897e-02 
-1.614698e-02 -6.167699e-03 -7.328283e-02 
-2.543889e-04 -7.871123e-04 -1.315852e-01 
-8.163607e-03 -3.142379e-03 -3.607761e-02 
-9.277739e-03 -3.182327e-03 -5.798562e-02 
-8.989151e-03 2.182909e-03 -5.861136e-02 
-1.250625e-02 -3.998417e-03 -4.393263e-02 
4.380537e-03 -1.264276e-03 -8.046423e-03 
0.000000e+00 0.000000e+00 1.000000e-05 
0.000000e+00 0.000000e+00 1.000000e-05 
-9.908747e-03 -3.299475e-03 -9.389303e-02 
-7.674059e-03 -2.897409e-03 -1.251634e-01 
-1.000000e-05 0.000000e+00 0.000000e+00 
-6.926996e-03 -2.363707e-03 -6.308323e-02 
-5.014029e-03 -1.760357e-03 -6.712235e-02 
-4.760149e-03 1.484227e-03 -4.232598e-02 
8.008525e-03 -2.751364e-03 -1.701496e-02 
-1.000000e-05 0.000000e+00 0.000000e+00 
-7.183800e-03 -2.892839e-03 -1.523142e-02 
-1.080721e-02 -3.826190e-03 -3.144552e-02 
-1.438624e-02 -4.989889e-03 -4.316136e-02 
0.000000e+00 0.000000e+00 1.000000e-05 
-1.000000e-05 0.000000e+00 0.000000e+00 
-1.000000e-05 0.000000e+00 0.000000e+00 
2.014113e-03 -5.862523e-04 -4.563606e-02 
-1.000000e-05 0.000000e+00 0.000000e+00 
-1.088002e-02 -5.582644e-03 -3.725297e-02 
-1.000000e-05 0.000000e+00 0.000000e+00 
-1.466111e-03 4.326357e-04 -4.851523e-02 
0.000000e+00 0.000000e+00 1.000000e-05 
-1.000000e-05 0.000000e+00 0.000000e+00 
4.804356e-03 -1.431789e-03 -3.940966e-02 
0.000000e+00 0.000000e+00 1.000000e-05 
3.861376e-04 -6.888537e-03 -1.538133e-01 
3.584926e-04 -7.842269e-03 -1.303486e-01 
-2.395063e-03 -6.975732e-03 -1.535529e-01 
-4.530345e-03 1.041360e-03 -6.735817e-02 
3.154502e-03 -6.838280e-03 -1.535619e-01 
-8.836918e-03 -7.252127e-03 -6.290242e-02 
-8.215714e-03 -8.116215e-03 -9.726439e-02 
-4.924543e-03 -7.138221e-03 -4.594046e-02 
4.146219e-04 -5.799230e-03 -1.730994e-01 
-9.283691e-03 -7.011071e-03 -4.938651e-02 
-1.323559e-02 -7.400450e-03 -8.890182e-02 
-2.005244e-04 -1.403158e-03 -1.792132e-01 
2.801605e-03 -4.099000e-05 -1.774871e-01 
-9.395942e-05 -1.563708e-03 -1.880265e-01 
-6.666900e-03 1.406401e-03 -1.438536e-01 
-6.216233e-03 1.408838e-03 -1.590478e-01 
-3.180150e-03 -2.756785e-03 -1.773064e-01 
-1.000000e-05 0.000000e+00 0.000000e+00 
-1.000000e-05 0.000000e+00 0.000000e+00 
-3.213639e-03 4.066849e-04 -1.500931e-01 
-2.727241e-04 -1.225334e-03 -1.682038e-01 
-6.912184e-03 1.387669e-03 -1.250206e-01 
-1.890608e-03 -5.778335e-03 -1.717630e-01 
-4.231049e-03 -5.772110e-03 -1.696235e-01 
6.418788e-04 -9.480203e-04 -1.788560e-01 
6.553061e-04 -1.130223e-03 -1.877314e-01 
-2.348944e-03 2.192825e-04 -1.770074e-01 
-2.579892e-03 -7.770531e-03 -1.292847e-01 
-5.608794e-03 -7.802956e-03 -1.278770e-01 
6.336832e-03 1.618145e-03 -5.627925e-02 
3.004805e-03 9.246516e-04 -2.435256e-02 
6.069912e-04 -7.630756e-04 -1.677884e-01 
-2.502736e-03 -8.294461e-03 -1.008904e-01 
3.619070e-03 -2.171918e-03 -1.770632e-01 
-4.349410e-03 -7.789198e-03 -6.505866e-02 
6.109334e-04 -1.342568e-03 -1.926633e-01 
2.199315e-03 -2.698168e-03 -1.906148e-01 
1.000000e-05 0.000000e+00 0.000000e+00 
1.000000e-05 0.000000e+00 0.000000e+00 
-9.907722e-04 -2.937658e-05 -1.905641e-01 
9.629545e-03 -2.818107e-03 -5.910997e-02 
1.026739e-02 -3.222770e-03 -5.065606e-02 
3.099099e-03 -8.230236e-03 -1.009729e-01 
5.493405e-04 -5.961774e-04 -1.514742e-01 
-1.272014e-03 -4.510224e-03 -1.857003e-01 
4.309776e-03 -1.635687e-03 -1.501482e-01 
-5.331389e-04 -3.076983e-03 -1.932862e-01 
1.000000e-05 0.000000e+00 0.000000e+00 
-5.842468e-03 -2.132805e-03 -1.295018e-02 
-1.117250e-02 -7.318323e-03 -1.199781e-01 
-8.339705e-03 -7.531334e-03 -1.243069e-01 
0.000000e+00 0.000000e+00 1.000000e-05 
1.000000e-05 0.000000e+00 0.000000e+00 
-1.316136e-02 -6.819242e-03 -1.128160e-01 
-5.101884e-03 1.380411e-03 -1.692518e-01 
-7.724721e-03 2.571690e-03 -1.578409e-01 
0.000000e+00 0.000000e+00 1.000000e-05 
-7.826631e-03 -6.734310e-03 -1.473372e-01 