# vtk DataFile Version 2.0
Finite-element dataset: variable: displacement, timestep: 100
ASCII

DATASET UNSTRUCTURED_GRID
POINTS 397 float
0 0 -1650 
0 0 -1460 
190 0 -1650 
0 0 -1840 
-190 0 -1650 
760 0 -2790 
760 0 -2600 
950 0 -2790 
750.65 0 -2983.01 
570 0 -2790 
380 0 -2790 
380 0 -2980 
190 0 -2790 
380 0 -2600 
380 0 -2410 
380 0 -2220 
570 0 -2410 
190 0 -2410 
-380 0 -2790 
-386.906 0 -2993.13 
-570 0 -2790 
-380 0 -2600 
-190 0 -2790 
-1710 0 -2790 
-1711.07 0 -2996.18 
-1900 0 -2980 
-2000 0 -2790 
-2000 0 -2600 
-1805.41 0 -2599.92 
-2000 0 -2980 
-1140 0 -2790 
-950 0 -2790 
-1140 0 -2980 
-1140 0 -2600 
-1330 0 -2790 
0 0 -2410 
0 0 -2600 
-4.26326e-14 0 -2220 
-190 0 -2410 
-380 0 -2410 
570 0 -2980 
717.921 0 -3157.81 
-570 0 -2410 
771.617 0 -3300 
665 0 -3300 
-380 0 -2220 
574.457 0 -3170.4 
950 0 -2980 
956.346 0 -3300 
-1140 0 -2410 
-1330 0 -2410 
-1140 0 -2220 
-950 0 -2410 
-760 0 -2790 
-760 0 -2980 
-760 0 -2600 
5.37597 0 -3300 
-190 0 -3300 
-185.059 0 -3078.14 
1.13687e-13 0 -2980 
214.977 0 -3005.45 
185.002 0 -3170.38 
190 0 -3300 
1140 0 -2790 
1142.37 0 -2981.04 
1140 0 -2600 
1330 0 -2790 
760 0 -2410 
760 0 -2220 
950 0 -2410 
1520 0 -2030 
1710 0 -2030 
1520 0 -2220 
-1520 0 -2980 
-1344.88 0 -2991.77 
-1335.45 0 -3164.3 
1520 0 -1840 
-1441.29 0 -3300 
-1620.93 0 -3300 
1330 0 -2030 
-1751.45 0 -3125.82 
1140 0 -2410 
1140 0 -2220 
1330 0 -2410 
-1710 0 -3300 
2000 0 -2790 
1900.16 0 -2606.99 
2000 0 -2600 
1900 0 -2980 
1719.03 0 -2986.14 
1710 0 -2790 
1710 0 -2600 
1520 0 -2980 
1722.4 0 -3170.8 
-1140 0 0 
-1326.97 0 -219.478 
-1330 0 0 
1475.16 0 -3300 
2000 0 -2980 
-949.549 0 -226.426 
-1140 0 -320 
1710 0 -3300 
-950 0 0 
1323.41 0 -3161.19 
1332.92 0 -2997.47 
1140 0 -2030 
1140 0 -1840 
950 0 -2030 
-380 0 0 
-190 0 0 
-187.563 0 -233.84 
1520 0 -2600 
1330 0 -2600 
-380 0 -320 
-566.023 0 -230.298 
1710 0 -2410 
-570 0 0 
-760 0 -510 
-950 0 -510 
-760 0 -320 
-570 0 -510 
0 0 0 
190 0 0 
210.544 0 -130.768 
-760 0 -700 
-1140 0 -510 
-1140 0 -700 
-1330 0 -510 
0 0 -320 
-2000 0 -2386.09 
-1140 0 -890 
-950 0 -890 
-1140 0 -1080 
182.766 0 -313.637 
-1330 0 -890 
-1710 0 -2410 
-1520 0 -1650 
-1520 0 -1840 
-1710 0 -1650 
-1520 0 -1270 
-1710 0 -1270 
-1520 0 -1080 
-1520 0 -1460 
-1330 0 -1650 
-1815.16 0 -2214.87 
-1330 0 -1270 
1330 0 -890 
1140 0 -700 
1330 0 -700 
1520 0 -1650 
1520 0 -1460 
1715.91 0 -1648.09 
-2000 0 -2220 
1330 0 -1080 
1140 0 -1080 
-1520 0 -510 
-1520 0 -700 
1330 0 -1650 
1520 0 -700 
1330 0 -510 
-1710 0 -510 
1808.25 0 -696.668 
1715.8 0 -891.258 
-1520 0 -320 
-2000 0 -2016.75 
1710 0 -510 
-2000 0 -1840 
-1804.62 0 -1831.58 
1520 0 -1080 
1330 0 -1270 
1710 0 -1080 
1710 0 -1270 
1724.37 0 -132.351 
1710 0 -320 
1520 0 -320 
1508.63 0 0 
-1710 0 -2030 
-1890.36 0 -494.859 
-2000 0 -594.531 
-2000 0 -416.182 
1330.37 0 -231.007 
-1900 0 -320 
-1877.09 0 -702.957 
1330 0 0 
-1140 0 -2030 
-950 0 -2030 
-1716.01 0 -318.744 
-1140 0 -1840 
1710 0 0 
-1330 0 -2030 
1746.86 0 -2239.15 
1896.23 0 -2211.79 
760 0 -320 
570 0 -510 
569.927 0 -221.512 
-1900.82 0 -146.848 
-2000 0 0 
-1808.03 0 0 
949.611 0 -261.114 
950 0 -510 
-2000 0 -215.88 
-1716.26 0 -152.35 
2000 0 -2409.83 
2000 0 -2220 
-2000 0 -1246.21 
-1817.32 0 -1452.6 
-2000 0 -1460 
-2000 0 -1080 
-1829.55 0 -1076.8 
5.68434e-14 0 -890 
0 0 -700 
190 0 -890 
2000 0 -2036.46 
1807.68 0 -1840.03 
2000 0 -1840 
-190 0 -890 
0 0 -1080 
760 0 -1650 
760 0 -1840 
570 0 -1650 
-1520.67 0 0 
760 0 -1460 
760 0 -700 
570 0 -700 
950 0 -1650 
190 0 -1080 
380 0 -1080 
950 0 -700 
-2000 0 -890 
-2000 0 -700 
190 0 -700 
380 0 -700 
570 0 -890 
-760 0 -1650 
-570 0 -1650 
-760 0 -1840 
190 0 -510 
950 0 -890 
950 0 -1080 
-950 0 -1650 
379.904 0 -313.205 
760 0 -1080 
-760 0 -1460 
-380 0 -1650 
-380 0 -1460 
-380 0 -1840 
-190 0 -510 
-1710 0 -890 
190 0 -1270 
-1716.34 0 -700.059 
-1140 0 -1650 
190 0 -1460 
1520 0 -1270 
-1140 0 -1460 
-950 0 -1080 
-760 0 -1080 
-190 0 -700 
-950 0 -700 
2000 0 -156.51 
1900 0 -320 
-760 0 -2030 
-760 0 -2220 
-380 0 -700 
1140 0 -510 
-570 0 -700 
2000 0 -320 
-570 0 -2030 
1900 0 0 
1140 0 -320 
-570 0 -890 
-190 0 -1080 
-190 0 -1270 
-380 0 -1080 
760 0 -2030 
570 0 -2030 
2000 0 0 
570 0 -1270 
570 0 -1080 
380 0 -1650 
380 0 -1840 
950 0 -1270 
380 0 -1460 
369.304 0 0 
-1520 0 -890 
1130.42 0 0 
950 0 0 
1140 0 -1650 
570 0 -1460 
570 0 0 
1140 0 -1460 
950 0 -1460 
1330 0 -1840 
-769.816 0 0 
1330 0 -1460 
760 0 -1270 
-1330 0 -1080 
1520 0 -510 
0 0 -1270 
2000 0 -510 
-1330 0 -700 
190 0 -2030 
190 0 -1840 
-1520 0 -2030 
-1520 0 -2220 
0 0 -510 
2000 0 -700 
380 0 -890 
2000 0 -3155.77 
2000 0 -3300 
1900 0 -3300 
-760 0 -890 
380 0 -1270 
950 0 -1840 
570 0 -1840 
570 0 -2220 
380 0 -2030 
1151.55 0 -3170.73 
1235 0 -3300 
1324.23 0 -3300 
1140 0 -3300 
-380 0 -2030 
-190 0 -2030 
950 0 -2220 
1520 0 -2790 
760 0 -890 
-570 0 -2220 
-570 0 -1840 
1140 0 -1270 
-2000 0 -3157.52 
-950 0 -2220 
1330 0 -2220 
2000 0 -1665.75 
2000 0 -1543.03 
760 0 -510 
-1900 0 -3300 
771.886 0 0 
-2000 0 -3300 
-1330 0 -1460 
1140 0 -890 
-1330 0 -1840 
-1520 0 -2790 
-1520 0 -2600 
-190 0 -1840 
-567.342 0 -2997.58 
380 0 -510 
-1235 0 -3300 
-1330 0 -3300 
-2000 0 -1626.17 
950 0 -2600 
-1140 0 -3170 
-950 0 -3170 
-950 0 -1270 
-1045 0 -3300 
1520 0 -890 
-570 0 -1080 
-570 0 -1270 
1900 0 -1270 
2000 0 -1360.14 
1900.23 0 -1451.86 
-950 0 -1840 
1900.21 0 -1087.68 
2000 0 -1179.5 
-950 0 -1460 
1710 0 -1460 
2000 0 -876.59 
2000 0 -1002.37 
-427.017 0 -3300 
-190 0 -2600 
-1710 0 0 
-570.855 0 -3160.61 
190 0 -2600 
-570 0 -1460 
-190 0 -1460 
0 0 -2790 
570 0 -3300 
-950 0 -2600 
-380 0 -890 
367.142 0 -3300 
-1330 0 -2220 
-760 0 -1270 
-570 0 -2600 
-1140 0 -1270 
-950 0 -2980 
1520 0 -2410 
-855 0 -3300 
-380 0 -510 
-190 0 -2220 
190 0 -2220 
-572.876 0 -3300 
-665 0 -3300 
0 0 -2030 
-380 0 -1270 
-1330 0 -2600 
570 0 -2600 
-760 0 -2410 
-1520 0 -2410 
-760 0 -3170 

CELLS 707 2828
3 0 1 2 
3 0 2 3 
3 0 3 4 
3 0 4 1 
3 5 6 7 
3 5 8 9 
3 5 7 8 
3 5 9 6 
3 10 11 12 
3 10 12 13 
3 10 9 11 
3 10 13 9 
3 14 15 16 
3 14 13 17 
3 14 16 13 
3 14 17 15 
3 18 19 20 
3 18 21 22 
3 18 22 19 
3 18 20 21 
3 23 24 25 
3 23 25 26 
3 26 27 28 
3 26 25 29 
3 28 23 26 
3 30 31 32 
3 30 33 31 
3 30 32 34 
3 30 34 33 
3 35 17 36 
3 35 37 17 
3 35 38 37 
3 35 36 38 
3 39 38 21 
3 40 8 41 
3 39 21 42 
3 41 43 44 
3 39 45 38 
3 41 44 46 
3 39 42 45 
3 47 48 41 
3 49 50 51 
3 49 51 52 
3 41 48 43 
3 49 52 33 
3 49 33 50 
3 53 54 31 
3 53 55 20 
3 53 31 55 
3 53 20 54 
3 56 57 58 
3 58 59 56 
3 59 60 61 
3 59 61 56 
3 56 61 62 
3 63 64 7 
3 63 7 65 
3 63 66 64 
3 67 16 68 
3 63 65 66 
3 67 68 69 
3 70 71 72 
3 73 74 75 
3 67 6 16 
3 70 76 71 
3 77 78 73 
3 67 69 6 
3 70 72 79 
3 80 24 73 
3 70 79 76 
3 80 73 78 
3 81 69 82 
3 81 82 83 
3 78 84 80 
3 81 65 69 
3 81 83 65 
3 85 86 87 
3 77 73 75 
3 88 89 90 
3 90 91 86 
3 92 89 93 
3 90 86 85 
3 94 95 96 
3 92 93 97 
3 88 90 85 
3 85 98 88 
3 99 100 94 
3 97 93 101 
3 100 95 94 
3 94 102 99 
3 103 104 92 
3 105 79 82 
3 105 106 79 
3 92 97 103 
3 105 107 106 
3 108 109 110 
3 105 82 107 
3 111 66 112 
3 113 114 108 
3 111 91 90 
3 111 115 91 
3 110 113 108 
3 111 112 83 
3 108 114 116 
3 117 118 119 
3 117 119 120 
3 121 122 123 
3 117 120 124 
3 117 124 118 
3 125 100 118 
3 125 118 126 
3 121 110 109 
3 125 126 127 
3 125 127 100 
3 128 110 121 
3 129 28 27 
3 130 131 132 
3 130 126 131 
3 123 133 128 
3 130 132 134 
3 123 128 121 
3 135 28 129 
3 130 134 126 
3 136 137 138 
3 139 140 141 
3 136 142 143 
3 139 142 140 
3 136 138 142 
3 144 135 129 
3 139 141 145 
3 136 143 137 
3 146 147 148 
3 139 145 142 
3 149 150 151 
3 129 152 144 
3 146 153 154 
3 155 127 156 
3 149 157 150 
3 158 148 159 
3 155 156 160 
3 149 76 157 
3 158 161 162 
3 155 163 127 
3 149 151 76 
3 164 144 152 
3 158 146 148 
3 155 160 163 
3 158 165 161 
3 164 166 167 
3 168 169 153 
3 168 170 171 
3 168 153 146 
3 172 173 174 
3 168 162 170 
3 172 174 175 
3 176 144 164 
3 177 178 179 
3 174 180 175 
3 177 179 181 
3 167 176 164 
3 177 182 178 
3 175 180 183 
3 184 185 51 
3 177 181 186 
3 184 187 185 
3 177 160 182 
3 175 188 172 
3 184 51 189 
3 184 189 187 
3 115 190 191 
3 192 193 194 
3 195 196 197 
3 192 198 199 
3 195 181 200 
3 195 201 181 
3 202 191 203 
3 195 197 201 
3 195 200 196 
3 86 91 115 
3 86 115 202 
3 115 191 202 
3 204 205 206 
3 202 87 86 
3 204 207 208 
3 209 210 211 
3 212 213 214 
3 208 140 204 
3 209 215 210 
3 191 190 71 
3 209 211 216 
3 140 205 204 
3 209 216 215 
3 217 218 219 
3 95 163 220 
3 217 219 221 
3 71 213 212 
3 222 223 193 
3 163 186 201 
3 217 221 224 
3 225 211 226 
3 191 71 212 
3 222 199 227 
3 228 229 182 
3 217 224 218 
3 230 231 211 
3 212 203 191 
3 222 232 223 
3 233 234 235 
3 236 231 230 
3 237 154 238 
3 233 235 239 
3 236 133 240 
3 237 238 241 
3 220 163 201 
3 233 239 242 
3 128 133 236 
3 237 227 147 
3 233 242 234 
3 210 230 211 
3 237 222 227 
3 220 96 95 
3 243 234 244 
3 210 236 230 
3 228 208 207 
3 243 245 234 
3 246 110 128 
3 243 4 245 
3 246 113 110 
3 247 208 228 
3 243 244 4 
3 248 225 226 
3 182 249 247 
3 250 187 143 
3 1 248 251 
3 252 171 150 
3 182 247 228 
3 250 253 239 
3 216 211 225 
3 252 168 171 
3 131 254 132 
3 250 239 187 
3 216 225 248 
3 252 169 168 
3 131 255 254 
3 250 143 253 
3 256 246 210 
3 252 150 169 
3 131 126 257 
3 258 259 172 
3 260 261 185 
3 256 262 246 
3 263 147 199 
3 124 120 264 
3 258 265 259 
3 260 235 266 
3 256 215 262 
3 263 159 147 
3 124 131 257 
3 258 172 267 
3 260 185 235 
3 256 210 215 
3 263 268 159 
3 124 264 269 
3 260 266 261 
3 270 271 272 
3 263 199 268 
3 124 257 118 
3 273 274 218 
3 270 216 271 
3 273 107 68 
3 270 272 215 
3 258 267 275 
3 273 68 274 
3 270 215 216 
3 273 218 107 
3 276 226 277 
3 278 219 279 
3 280 238 154 
3 278 281 219 
3 241 276 277 
3 194 240 282 
3 283 134 141 
3 278 2 281 
3 241 238 280 
3 240 133 123 
3 283 156 134 
3 278 279 2 
3 241 277 232 
3 240 123 282 
3 284 198 285 
3 283 247 156 
3 286 157 106 
3 287 276 221 
3 282 288 194 
3 283 141 247 
3 286 224 289 
3 290 221 280 
3 282 123 122 
3 268 198 284 
3 286 289 157 
3 106 291 79 
3 180 268 284 
3 114 119 292 
3 286 106 224 
3 157 293 150 
3 294 241 280 
3 157 291 106 
3 119 99 292 
3 294 280 221 
3 157 76 291 
3 119 114 120 
3 284 183 180 
3 294 221 276 
3 224 221 290 
3 165 173 259 
3 119 118 99 
3 292 116 114 
3 294 276 241 
3 289 224 290 
3 141 295 145 
3 296 159 174 
3 297 216 248 
3 289 290 280 
3 165 259 298 
3 141 140 208 
3 296 165 158 
3 297 271 216 
3 289 293 157 
3 156 127 299 
3 296 158 159 
3 297 1 271 
3 289 169 293 
3 298 259 265 
3 156 249 160 
3 296 174 165 
3 292 99 102 
3 297 248 1 
3 279 300 301 
3 134 299 126 
3 302 303 176 
3 304 246 128 
3 2 1 251 
3 134 295 141 
3 302 176 137 
3 304 236 210 
3 2 279 301 
3 298 305 161 
3 134 132 295 
3 302 189 303 
3 304 128 236 
3 2 301 3 
3 134 156 299 
3 302 137 189 
3 304 210 246 
3 219 287 221 
3 161 165 298 
3 247 249 156 
3 306 211 231 
3 281 287 219 
3 247 141 208 
3 307 308 309 
3 306 232 226 
3 281 251 248 
3 306 231 232 
3 281 2 251 
3 307 88 98 
3 310 255 131 
3 306 226 211 
3 281 276 287 
3 310 269 255 
3 311 276 281 
3 312 224 106 
3 307 93 88 
3 310 131 124 
3 311 281 248 
3 313 279 219 
3 310 124 269 
3 311 226 276 
3 274 314 15 
3 138 205 142 
3 311 248 226 
3 274 279 313 
3 307 309 93 
3 315 15 300 
3 218 274 313 
3 315 300 279 
3 218 313 219 
3 316 103 317 
3 315 279 274 
3 218 224 312 
3 103 64 104 
3 316 64 103 
3 315 274 15 
3 107 312 106 
3 103 318 317 
3 316 317 319 
3 320 266 245 
3 107 218 312 
3 103 97 318 
3 316 48 47 
3 320 245 321 
3 107 82 322 
3 316 319 48 
3 320 321 45 
3 68 314 274 
3 323 92 66 
3 320 45 266 
3 68 16 314 
3 323 111 90 
3 68 107 322 
3 323 90 92 
3 68 322 69 
3 93 89 88 
3 323 66 111 
3 324 237 241 
3 266 45 325 
3 93 309 101 
3 324 241 232 
3 235 326 266 
3 205 140 142 
3 327 289 280 
3 328 29 25 
3 324 222 237 
3 185 329 51 
3 82 330 83 
3 327 280 154 
3 324 232 222 
3 331 151 332 
3 261 266 325 
3 69 322 82 
3 327 154 169 
3 328 25 80 
3 331 214 213 
3 261 329 185 
3 72 83 330 
3 327 169 289 
3 261 52 329 
3 72 190 115 
3 333 192 199 
3 328 80 334 
3 335 194 288 
3 213 151 331 
3 261 325 42 
3 79 330 82 
3 333 222 193 
3 80 84 334 
3 328 334 336 
3 143 142 337 
3 79 72 330 
3 333 193 192 
3 80 25 24 
3 335 285 198 
3 253 143 337 
3 79 291 76 
3 333 199 222 
3 253 337 145 
3 71 190 72 
3 338 146 154 
3 187 189 339 
3 113 120 114 
3 71 76 213 
3 338 237 147 
3 340 23 341 
3 187 339 143 
3 257 126 118 
3 65 83 112 
3 338 154 237 
3 340 341 34 
3 4 3 342 
3 95 100 127 
3 66 65 112 
3 338 147 146 
3 75 74 32 
3 340 34 73 
3 343 54 20 
3 198 192 335 
3 234 326 235 
3 145 337 142 
3 66 104 64 
3 344 193 231 
3 75 345 346 
3 340 73 23 
3 19 343 20 
3 347 206 205 
3 245 326 234 
3 132 145 295 
3 348 65 7 
3 344 236 240 
3 75 346 77 
3 349 32 350 
3 22 58 19 
3 192 194 335 
3 245 342 321 
3 254 255 351 
3 348 69 65 
3 344 240 193 
3 349 350 352 
3 353 168 146 
3 138 167 347 
3 245 266 326 
3 254 351 132 
3 316 47 64 
3 344 231 236 
3 163 95 127 
3 349 352 345 
3 353 158 162 
3 205 138 347 
3 245 4 342 
3 354 355 255 
3 47 7 64 
3 356 357 358 
3 163 160 186 
3 349 75 32 
3 353 146 158 
3 347 167 166 
3 359 187 239 
3 262 264 120 
3 356 360 361 
3 349 345 75 
3 353 162 168 
3 359 185 187 
3 269 354 255 
3 356 361 357 
3 359 235 185 
3 269 264 262 
3 356 358 171 
3 359 239 235 
3 272 354 269 
3 356 171 360 
3 362 239 253 
3 272 355 354 
3 151 150 363 
3 364 365 162 
3 366 58 57 
3 367 21 38 
3 362 253 351 
3 151 213 76 
3 201 186 181 
3 367 22 21 
3 362 351 242 
3 364 161 305 
3 73 34 74 
3 201 368 220 
3 369 343 19 
3 11 60 12 
3 362 242 239 
3 73 24 23 
3 201 197 368 
3 13 370 17 
3 371 355 244 
3 358 363 171 
3 172 259 173 
3 13 12 370 
3 371 244 234 
3 358 151 363 
3 172 188 267 
3 19 58 366 
3 371 234 242 
3 371 242 355 
3 179 200 181 
3 162 161 364 
3 372 244 271 
3 19 366 369 
3 372 4 244 
3 194 193 240 
3 59 58 22 
3 373 22 36 
3 372 271 1 
3 268 199 198 
3 59 12 60 
3 373 12 59 
3 372 1 4 
3 365 360 162 
3 147 227 199 
3 373 59 22 
3 40 41 46 
3 159 268 180 
3 373 36 12 
3 46 44 374 
3 361 360 365 
3 375 55 31 
3 182 229 178 
3 376 272 269 
3 36 370 12 
3 52 55 375 
3 376 269 262 
3 36 17 370 
3 51 329 52 
3 148 147 159 
3 376 215 272 
3 377 46 374 
3 36 22 367 
3 51 378 189 
3 171 170 360 
3 376 262 215 
3 36 367 38 
3 332 151 358 
3 51 50 378 
3 153 169 154 
3 379 242 351 
3 74 34 32 
3 377 62 61 
3 33 375 31 
3 379 255 355 
3 6 348 7 
3 33 52 375 
3 160 249 182 
3 379 351 255 
3 174 159 180 
3 11 40 46 
3 6 69 348 
3 332 358 357 
3 380 20 55 
3 177 186 160 
3 379 355 242 
3 174 173 165 
3 11 46 377 
3 8 7 47 
3 21 20 380 
3 127 126 299 
3 381 145 132 
3 137 176 167 
3 61 60 11 
3 47 41 8 
3 42 325 45 
3 381 351 253 
3 137 167 138 
3 61 11 377 
3 9 40 11 
3 42 380 55 
3 293 169 150 
3 381 132 351 
3 137 339 189 
3 9 8 40 
3 350 382 54 
3 42 21 380 
3 381 253 145 
3 137 143 339 
3 383 115 111 
3 350 384 352 
3 385 113 246 
3 386 321 37 
3 99 118 100 
3 92 90 89 
3 383 83 72 
3 350 32 382 
3 387 17 37 
3 385 262 120 
3 386 38 45 
3 92 104 66 
3 383 72 115 
3 369 366 388 
3 387 37 300 
3 385 120 113 
3 386 37 38 
3 383 111 83 
3 369 388 389 
3 15 17 387 
3 385 246 262 
3 386 45 321 
3 390 300 37 
3 369 54 343 
3 15 387 300 
3 391 271 244 
3 382 31 54 
3 390 321 3 
3 341 28 135 
3 170 162 360 
3 314 16 15 
3 391 244 355 
3 382 32 31 
3 390 3 300 
3 341 50 392 
3 391 272 271 
3 231 193 223 
3 392 50 33 
3 390 37 321 
3 393 9 13 
3 341 392 34 
3 391 355 272 
3 232 231 223 
3 392 33 34 
3 3 301 300 
3 393 6 9 
3 341 23 28 
3 232 277 226 
3 394 42 55 
3 342 3 321 
3 393 13 16 
3 303 189 378 
3 394 52 261 
3 393 16 6 
3 303 135 144 
3 394 261 42 
3 303 144 176 
3 394 55 52 
3 303 378 50 
3 363 150 171 
3 395 341 135 
3 395 135 303 
3 395 303 50 
3 395 50 341 
3 396 389 384 
3 396 350 54 
3 396 384 350 
3 396 369 389 
3 396 54 369 

CELL_TYPES 707
5
5
5
5
5
5
5
5
5
5
5
5
5
5
5
5
5
5
5
5
5
5
5
5
5
5
5
5
5
5
5
5
5
5
5
5
5
5
5
5
5
5
5
5
5
5
5
5
5
5
5
5
5
5
5
5
5
5
5
5
5
5
5
5
5
5
5
5
5
5
5
5
5
5
5
5
5
5
5
5
5
5
5
5
5
5
5
5
5
5
5
5
5
5
5
5
5
5
5
5
5
5
5
5
5
5
5
5
5
5
5
5
5
5
5
5
5
5
5
5
5
5
5
5
5
5
5
5
5
5
5
5
5
5
5
5
5
5
5
5
5
5
5
5
5
5
5
5
5
5
5
5
5
5
5
5
5
5
5
5
5
5
5
5
5
5
5
5
5
5
5
5
5
5
5
5
5
5
5
5
5
5
5
5
5
5
5
5
5
5
5
5
5
5
5
5
5
5
5
5
5
5
5
5
5
5
5
5
5
5
5
5
5
5
5
5
5
5
5
5
5
5
5
5
5
5
5
5
5
5
5
5
5
5
5
5
5
5
5
5
5
5
5
5
5
5
5
5
5
5
5
5
5
5
5
5
5
5
5
5
5
5
5
5
5
5
5
5
5
5
5
5
5
5
5
5
5
5
5
5
5
5
5
5
5
5
5
5
5
5
5
5
5
5
5
5
5
5
5
5
5
5
5
5
5
5
5
5
5
5
5
5
5
5
5
5
5
5
5
5
5
5
5
5
5
5
5
5
5
5
5
5
5
5
5
5
5
5
5
5
5
5
5
5
5
5
5
5
5
5
5
5
5
5
5
5
5
5
5
5
5
5
5
5
5
5
5
5
5
5
5
5
5
5
5
5
5
5
5
5
5
5
5
5
5
5
5
5
5
5
5
5
5
5
5
5
5
5
5
5
5
5
5
5
5
5
5
5
5
5
5
5
5
5
5
5
5
5
5
5
5
5
5
5
5
5
5
5
5
5
5
5
5
5
5
5
5
5
5
5
5
5
5
5
5
5
5
5
5
5
5
5
5
5
5
5
5
5
5
5
5
5
5
5
5
5
5
5
5
5
5
5
5
5
5
5
5
5
5
5
5
5
5
5
5
5
5
5
5
5
5
5
5
5
5
5
5
5
5
5
5
5
5
5
5
5
5
5
5
5
5
5
5
5
5
5
5
5
5
5
5
5
5
5
5
5
5
5
5
5
5
5
5
5
5
5
5
5
5
5
5
5
5
5
5
5
5
5
5
5
5
5
5
5
5
5
5
5
5
5
5
5
5
5
5
5
5
5
5
5
5
5
5
5
5
5
5
5
5
5
5
5
5
5
5
5
5
5
5
5
5
5
5
5
5
5
5
5
5
5
5
5
5
5
5
5
5
5
5
5
5
5
5
5
5
5
5
5
5
5
5
5
5
5
5
5
5
5
5
5
5
5
5
5
5
5
5
5
5
5
5
5
5
5
5
5
5
5
5
5
5
5
5
5
5
5
5
5
5
5
5
5
5
5
5
5
5
5
5
5
5
5
5
5
5
5
5
5
5
5
5
5
5
5
5
5
5
5
5
5
5
5
5
5
5
5
5
5
5
5
5
5
5
5
5
5
5

POINT_DATA 397
VECTORS displacement float
6.355041e-04 8.368393e-02 -9.228850e-02 
5.267490e-04 7.730700e-02 -9.527905e-02 
-3.892739e-03 8.381020e-02 -9.215570e-02 
7.566243e-04 8.937152e-02 -8.693358e-02 
5.127641e-03 8.373787e-02 -9.192385e-02 
-4.494263e-03 9.291758e-02 -3.019310e-02 
-6.461042e-03 9.974191e-02 -4.168810e-02 
-4.564149e-03 9.401205e-02 -2.908462e-02 
-2.787714e-03 7.865008e-02 -1.835577e-02 
-3.820255e-03 9.359174e-02 -3.126410e-02 
-2.712252e-03 9.200301e-02 -3.169836e-02 
-1.861193e-03 7.953954e-02 -1.943683e-02 
-1.158706e-03 9.232400e-02 -3.225482e-02 
-3.708147e-03 9.877884e-02 -4.410710e-02 
-4.730130e-03 9.974607e-02 -5.603775e-02 
-5.733443e-03 9.838627e-02 -6.743585e-02 
-6.923405e-03 1.006349e-01 -5.481182e-02 
-2.063347e-03 9.939595e-02 -5.694041e-02 
3.761476e-03 9.158103e-02 -3.134879e-02 
2.740221e-03 7.664106e-02 -1.759906e-02 
4.537591e-03 9.288382e-02 -3.110020e-02 
5.006388e-03 9.832875e-02 -4.374146e-02 
2.410928e-03 9.268428e-02 -3.219761e-02 
9.595698e-04 6.630396e-02 -1.359632e-02 
-6.295995e-05 5.761823e-02 -8.908098e-03 
-1.555384e-04 3.366908e-02 -2.979470e-03 
-1.000000e-05 0.000000e+00 0.000000e+00 
-1.000000e-05 0.000000e+00 0.000000e+00 
1.178951e-03 5.471680e-02 -1.207052e-02 
-1.000000e-05 0.000000e+00 0.000000e+00 
4.520385e-03 8.984593e-02 -2.651285e-02 
4.981476e-03 9.235629e-02 -2.876353e-02 
2.228457e-03 7.860244e-02 -1.738291e-02 
6.704548e-03 9.566842e-02 -3.560674e-02 
3.448458e-03 8.730470e-02 -2.351795e-02 
8.657826e-04 9.883700e-02 -5.692128e-02 
7.616407e-04 9.776449e-02 -4.469684e-02 
9.072821e-04 9.757080e-02 -6.864744e-02 
3.736860e-03 9.923271e-02 -5.667690e-02 
6.135024e-03 9.933014e-02 -5.556415e-02 
-2.450967e-03 7.884068e-02 -1.909823e-02 
-2.107033e-03 4.834362e-02 -6.965511e-03 
7.951514e-03 9.995471e-02 -5.415757e-02 
0.000000e+00 0.000000e+00 -1.000000e-05 
0.000000e+00 0.000000e+00 -1.000000e-05 
7.168405e-03 9.807036e-02 -6.688583e-02 
-1.084280e-03 4.683978e-02 -7.816163e-03 
-2.372519e-03 8.110017e-02 -1.780308e-02 
0.000000e+00 0.000000e+00 -1.000000e-05 
9.078418e-03 9.556599e-02 -4.411845e-02 
7.820790e-03 9.101754e-02 -3.844254e-02 
1.119268e-02 9.380624e-02 -5.232034e-02 
9.432700e-03 9.874304e-02 -4.863897e-02 
5.070941e-03 9.204919e-02 -3.011531e-02 
2.883007e-03 7.983136e-02 -1.927937e-02 
7.087897e-03 9.869239e-02 -4.115895e-02 
0.000000e+00 0.000000e+00 -1.000000e-05 
0.000000e+00 0.000000e+00 -1.000000e-05 
1.236060e-03 6.711639e-02 -1.451474e-02 
3.867809e-05 7.796161e-02 -1.915256e-02 
-1.259283e-03 7.373633e-02 -1.855346e-02 
-5.217867e-04 4.685024e-02 -8.489706e-03 
0.000000e+00 0.000000e+00 -1.000000e-05 
-4.308217e-03 9.134111e-02 -2.684878e-02 
-2.167336e-03 7.920080e-02 -1.686484e-02 
-6.484305e-03 9.741134e-02 -3.632671e-02 
-3.400509e-03 8.905702e-02 -2.384245e-02 
-8.453384e-03 1.003925e-01 -5.248922e-02 
-1.026509e-02 9.881442e-02 -6.276430e-02 
-9.067265e-03 1.000861e-01 -4.954193e-02 
-9.697266e-03 7.484913e-02 -4.096760e-02 
-6.340883e-03 5.923479e-02 -2.777360e-02 
-7.766269e-03 8.026778e-02 -3.666522e-02 
6.368689e-04 7.463323e-02 -1.276402e-02 
1.528331e-03 7.219958e-02 -1.471713e-02 
4.692855e-04 4.353099e-02 -7.143102e-03 
-1.098347e-02 7.071596e-02 -4.490726e-02 
0.000000e+00 0.000000e+00 -1.000000e-05 
0.000000e+00 0.000000e+00 -1.000000e-05 
-1.185043e-02 8.501729e-02 -5.187330e-02 
-1.788636e-03 4.197706e-02 -4.958531e-03 
-8.875401e-03 9.716126e-02 -4.503722e-02 
-1.101907e-02 9.505010e-02 -5.324910e-02 
-7.729929e-03 9.276514e-02 -3.932175e-02 
0.000000e+00 0.000000e+00 -1.000000e-05 
1.000000e-05 0.000000e+00 0.000000e+00 
2.149240e-04 3.518411e-02 -6.565077e-03 
1.000000e-05 0.000000e+00 0.000000e+00 
8.029178e-04 3.565398e-02 -3.947282e-03 
1.515393e-04 5.888533e-02 -9.152188e-03 
-5.642636e-04 6.854348e-02 -1.415768e-02 
-2.221303e-03 6.651389e-02 -1.790374e-02 
-3.481241e-04 7.264620e-02 -1.117978e-02 
8.559956e-04 4.185065e-02 -4.922133e-03 
0.000000e+00 0.000000e+00 1.000000e-05 
8.707022e-03 1.592544e-02 -1.918147e-02 
0.000000e+00 0.000000e+00 1.000000e-05 
0.000000e+00 0.000000e+00 -1.000000e-05 
1.000000e-05 0.000000e+00 0.000000e+00 
7.921966e-03 1.795663e-02 -2.381400e-02 
1.149969e-02 2.329994e-02 -3.058584e-02 
0.000000e+00 0.000000e+00 -1.000000e-05 
0.000000e+00 0.000000e+00 1.000000e-05 
-6.619657e-04 4.642645e-02 -6.465648e-03 
-1.547951e-03 7.264012e-02 -1.376644e-02 
-1.301037e-02 9.018415e-02 -6.010335e-02 
-1.466974e-02 8.499072e-02 -6.605404e-02 
-1.302322e-02 9.346582e-02 -6.676849e-02 
0.000000e+00 0.000000e+00 1.000000e-05 
0.000000e+00 0.000000e+00 1.000000e-05 
2.027382e-03 1.804730e-02 -2.813681e-02 
-3.832661e-03 8.470537e-02 -2.581433e-02 
-5.682714e-03 9.229534e-02 -3.177203e-02 
5.263174e-03 2.396510e-02 -3.729597e-02 
5.607261e-03 1.787629e-02 -2.648636e-02 
-3.337761e-03 6.726837e-02 -2.172942e-02 
0.000000e+00 0.000000e+00 1.000000e-05 
1.245631e-02 3.576833e-02 -5.119444e-02 
1.431303e-02 3.540585e-02 -4.840302e-02 
9.406967e-03 2.431519e-02 -3.486334e-02 
1.026938e-02 3.587058e-02 -5.346322e-02 
0.000000e+00 0.000000e+00 1.000000e-05 
0.000000e+00 0.000000e+00 1.000000e-05 
-1.318512e-03 1.056192e-02 -1.607578e-02 
1.474218e-02 4.576792e-02 -6.480031e-02 
1.481617e-02 3.392056e-02 -4.432580e-02 
1.715661e-02 4.330631e-02 -5.569359e-02 
1.488799e-02 3.177549e-02 -3.935208e-02 
2.201625e-04 2.352596e-02 -3.825573e-02 
-1.000000e-05 0.000000e+00 0.000000e+00 
1.792347e-02 5.145710e-02 -6.364964e-02 
1.764029e-02 5.371286e-02 -7.027232e-02 
1.838387e-02 5.923646e-02 -6.935879e-02 
-2.116551e-03 2.306171e-02 -3.675465e-02 
1.722245e-02 4.793913e-02 -5.559824e-02 
3.753589e-03 6.492856e-02 -2.093875e-02 
1.252734e-02 6.492243e-02 -4.733172e-02 
1.112827e-02 7.089217e-02 -4.467115e-02 
8.514457e-03 5.059874e-02 -3.166041e-02 
1.407420e-02 5.382509e-02 -4.909411e-02 
9.758825e-03 4.156745e-02 -3.291280e-02 
1.457779e-02 4.853209e-02 -4.803347e-02 
1.342903e-02 6.041381e-02 -4.927792e-02 
1.519232e-02 7.401025e-02 -6.002463e-02 
3.291284e-03 4.846107e-02 -1.616753e-02 
1.696866e-02 6.176771e-02 -6.208932e-02 
-1.710638e-02 4.752537e-02 -5.601399e-02 
-1.697381e-02 4.308653e-02 -5.611126e-02 
-1.612063e-02 3.980045e-02 -4.884664e-02 
-1.233489e-02 6.441600e-02 -4.743710e-02 
-1.333482e-02 5.916810e-02 -4.922141e-02 
-8.277056e-03 5.051901e-02 -3.155250e-02 
-1.000000e-05 0.000000e+00 0.000000e+00 
-1.696741e-02 5.416834e-02 -6.006914e-02 
-1.810613e-02 5.867326e-02 -6.979330e-02 
1.279721e-02 2.762480e-02 -3.207655e-02 
1.428916e-02 3.522764e-02 -3.958415e-02 
-1.490061e-02 7.360767e-02 -6.027140e-02 
-1.430306e-02 3.520769e-02 -4.004255e-02 
-1.482024e-02 3.160987e-02 -3.961624e-02 
9.751400e-03 2.167670e-02 -2.290702e-02 
-7.158643e-03 2.128505e-02 -1.893275e-02 
-1.025388e-02 3.192879e-02 -3.018856e-02 
1.083512e-02 1.948749e-02 -2.277244e-02 
-1.000000e-05 0.000000e+00 0.000000e+00 
-1.002995e-02 2.176116e-02 -2.350889e-02 
-1.000000e-05 0.000000e+00 0.000000e+00 
5.105407e-03 4.419058e-02 -2.080644e-02 
-1.449740e-02 4.758565e-02 -4.814196e-02 
-1.674272e-02 6.101577e-02 -6.236030e-02 
-9.944241e-03 3.575285e-02 -3.226955e-02 
-9.632377e-03 4.166989e-02 -3.304925e-02 
-4.709698e-03 7.975959e-03 -8.094880e-03 
-7.918144e-03 1.510058e-02 -1.679805e-02 
-1.104233e-02 1.940432e-02 -2.343814e-02 
0.000000e+00 0.000000e+00 1.000000e-05 
6.379765e-03 5.864648e-02 -2.733495e-02 
4.577724e-03 9.877001e-03 -9.433801e-03 
-1.000000e-05 0.000000e+00 0.000000e+00 
-1.000000e-05 0.000000e+00 0.000000e+00 
-8.801619e-03 1.681020e-02 -2.022205e-02 
3.819423e-03 6.807041e-03 -6.857397e-03 
4.920888e-03 1.541934e-02 -1.282574e-02 
0.000000e+00 0.000000e+00 1.000000e-05 
1.324941e-02 8.945303e-02 -5.932742e-02 
1.338304e-02 9.280761e-02 -6.589481e-02 
7.887142e-03 1.507725e-02 -1.617033e-02 
1.497109e-02 8.475817e-02 -6.547557e-02 
0.000000e+00 0.000000e+00 1.000000e-05 
1.199923e-02 8.433255e-02 -5.122584e-02 
-4.445396e-03 5.676780e-02 -2.158279e-02 
-1.582812e-03 3.239405e-02 -8.882699e-03 
-9.355902e-03 2.418640e-02 -3.507247e-02 
-1.013177e-02 3.583925e-02 -5.366873e-02 
-5.418442e-03 1.760388e-02 -2.551574e-02 
2.600580e-03 3.973782e-03 -4.428780e-03 
0.000000e+00 0.000000e+00 1.000000e-05 
0.000000e+00 0.000000e+00 1.000000e-05 
-8.853091e-03 2.034434e-02 -2.719207e-02 
-1.416701e-02 3.519749e-02 -4.861394e-02 
-1.000000e-05 0.000000e+00 0.000000e+00 
5.325078e-03 8.514539e-03 -9.168377e-03 
1.000000e-05 0.000000e+00 0.000000e+00 
1.000000e-05 0.000000e+00 0.000000e+00 
-1.000000e-05 0.000000e+00 0.000000e+00 
6.059414e-03 3.538784e-02 -2.152468e-02 
-1.000000e-05 0.000000e+00 0.000000e+00 
-1.000000e-05 0.000000e+00 0.000000e+00 
6.291338e-03 2.679174e-02 -1.991365e-02 
2.236429e-04 5.447381e-02 -8.245303e-02 
2.010822e-04 4.535122e-02 -7.120938e-02 
-4.501280e-03 5.460087e-02 -8.234232e-02 
1.000000e-05 0.000000e+00 0.000000e+00 
-4.911232e-03 4.431463e-02 -2.063522e-02 
1.000000e-05 0.000000e+00 0.000000e+00 
4.971787e-03 5.450662e-02 -8.217741e-02 
3.080453e-04 6.268251e-02 -9.054091e-02 
-1.426103e-02 8.326486e-02 -8.341414e-02 
-1.323014e-02 8.939404e-02 -7.865100e-02 
-1.166612e-02 8.390577e-02 -8.784904e-02 
0.000000e+00 0.000000e+00 1.000000e-05 
-1.513753e-02 7.687857e-02 -8.619875e-02 
-1.446723e-02 4.569151e-02 -6.520251e-02 
-1.165300e-02 4.583089e-02 -6.783010e-02 
-1.583892e-02 8.189570e-02 -7.791683e-02 
-4.552909e-03 6.285049e-02 -8.993319e-02 
-9.081097e-03 6.296243e-02 -8.871192e-02 
-1.605674e-02 4.472411e-02 -6.104582e-02 
-1.000000e-05 0.000000e+00 0.000000e+00 
-1.000000e-05 0.000000e+00 0.000000e+00 
-4.135754e-03 4.546680e-02 -7.068002e-02 
-8.256635e-03 4.570187e-02 -6.983659e-02 
-1.262428e-02 5.486301e-02 -7.883014e-02 
1.489396e-02 8.329977e-02 -8.287757e-02 
1.252039e-02 8.390173e-02 -8.732618e-02 
1.385181e-02 8.920697e-02 -7.796199e-02 
-3.511332e-03 3.525375e-02 -5.591297e-02 
-1.730145e-02 5.341233e-02 -7.074839e-02 
-1.747349e-02 6.106071e-02 -7.671951e-02 
1.628978e-02 8.200885e-02 -7.742363e-02 
-5.256026e-03 2.344876e-02 -3.642781e-02 
-1.580431e-02 6.247081e-02 -8.230214e-02 
1.577848e-02 7.706655e-02 -8.574399e-02 
9.128191e-03 8.385388e-02 -8.991917e-02 
9.541577e-03 7.745068e-02 -9.292832e-02 
8.669842e-03 8.967883e-02 -8.464423e-02 
3.878251e-03 3.526309e-02 -5.584115e-02 
1.046818e-02 3.234873e-02 -3.063058e-02 
-4.464404e-03 7.038608e-02 -9.425511e-02 
9.707765e-03 2.631397e-02 -2.660530e-02 
1.633855e-02 7.885741e-02 -6.958014e-02 
-4.201745e-03 7.742870e-02 -9.465007e-02 
-1.391974e-02 5.303062e-02 -4.917893e-02 
1.745421e-02 7.297140e-02 -7.212513e-02 
1.791443e-02 6.150176e-02 -7.630056e-02 