# vtk DataFile Version 2.0
Finite-element dataset: variable: matrix pressure, timestep: 100
ASCII

DATASET UNSTRUCTURED_GRID
POINTS 397 float
0 0 -1650 
0 0 -1460 
190 0 -1650 
0 0 -1840 
-190 0 -1650 
760 0 -2790 
760 0 -2600 
950 0 -2790 
750.65 0 -2983.01 
570 0 -2790 
380 0 -2790 
380 0 -2980 
190 0 -2790 
380 0 -2600 
380 0 -2410 
380 0 -2220 
570 0 -2410 
190 0 -2410 
-380 0 -2790 
-386.906 0 -2993.13 
-570 0 -2790 
-380 0 -2600 
-190 0 -2790 
-1710 0 -2790 
-1711.07 0 -2996.18 
-1900 0 -2980 
-2000 0 -2790 
-2000 0 -2600 
-1805.41 0 -2599.92 
-2000 0 -2980 
-1140 0 -2790 
-950 0 -2790 
-1140 0 -2980 
-1140 0 -2600 
-1330 0 -2790 
0 0 -2410 
0 0 -2600 
-4.26326e-14 0 -2220 
-190 0 -2410 
-380 0 -2410 
570 0 -2980 
717.921 0 -3157.81 
-570 0 -2410 
771.617 0 -3300 
665 0 -3300 
-380 0 -2220 
574.457 0 -3170.4 
950 0 -2980 
956.346 0 -3300 
-1140 0 -2410 
-1330 0 -2410 
-1140 0 -2220 
-950 0 -2410 
-760 0 -2790 
-760 0 -2980 
-760 0 -2600 
5.37597 0 -3300 
-190 0 -3300 
-185.059 0 -3078.14 
1.13687e-13 0 -2980 
214.977 0 -3005.45 
185.002 0 -3170.38 
190 0 -3300 
1140 0 -2790 
1142.37 0 -2981.04 
1140 0 -2600 
1330 0 -2790 
760 0 -2410 
760 0 -2220 
950 0 -2410 
1520 0 -2030 
1710 0 -2030 
1520 0 -2220 
-1520 0 -2980 
-1344.88 0 -2991.77 
-1335.45 0 -3164.3 
1520 0 -1840 
-1441.29 0 -3300 
-1620.93 0 -3300 
1330 0 -2030 
-1751.45 0 -3125.82 
1140 0 -2410 
1140 0 -2220 
1330 0 -2410 
-1710 0 -3300 
2000 0 -2790 
1900.16 0 -2606.99 
2000 0 -2600 
1900 0 -2980 
1719.03 0 -2986.14 
1710 0 -2790 
1710 0 -2600 
1520 0 -2980 
1722.4 0 -3170.8 
-1140 0 0 
-1326.97 0 -219.478 
-1330 0 0 
1475.16 0 -3300 
2000 0 -2980 
-949.549 0 -226.426 
-1140 0 -320 
1710 0 -3300 
-950 0 0 
1323.41 0 -3161.19 
1332.92 0 -2997.47 
1140 0 -2030 
1140 0 -1840 
950 0 -2030 
-380 0 0 
-190 0 0 
-187.563 0 -233.84 
1520 0 -2600 
1330 0 -2600 
-380 0 -320 
-566.023 0 -230.298 
1710 0 -2410 
-570 0 0 
-760 0 -510 
-950 0 -510 
-760 0 -320 
-570 0 -510 
0 0 0 
190 0 0 
210.544 0 -130.768 
-760 0 -700 
-1140 0 -510 
-1140 0 -700 
-1330 0 -510 
0 0 -320 
-2000 0 -2386.09 
-1140 0 -890 
-950 0 -890 
-1140 0 -1080 
182.766 0 -313.637 
-1330 0 -890 
-1710 0 -2410 
-1520 0 -1650 
-1520 0 -1840 
-1710 0 -1650 
-1520 0 -1270 
-1710 0 -1270 
-1520 0 -1080 
-1520 0 -1460 
-1330 0 -1650 
-1815.16 0 -2214.87 
-1330 0 -1270 
1330 0 -890 
1140 0 -700 
1330 0 -700 
1520 0 -1650 
1520 0 -1460 
1715.91 0 -1648.09 
-2000 0 -2220 
1330 0 -1080 
1140 0 -1080 
-1520 0 -510 
-1520 0 -700 
1330 0 -1650 
1520 0 -700 
1330 0 -510 
-1710 0 -510 
1808.25 0 -696.668 
1715.8 0 -891.258 
-1520 0 -320 
-2000 0 -2016.75 
1710 0 -510 
-2000 0 -1840 
-1804.62 0 -1831.58 
1520 0 -1080 
1330 0 -1270 
1710 0 -1080 
1710 0 -1270 
1724.37 0 -132.351 
1710 0 -320 
1520 0 -320 
1508.63 0 0 
-1710 0 -2030 
-1890.36 0 -494.859 
-2000 0 -594.531 
-2000 0 -416.182 
1330.37 0 -231.007 
-1900 0 -320 
-1877.09 0 -702.957 
1330 0 0 
-1140 0 -2030 
-950 0 -2030 
-1716.01 0 -318.744 
-1140 0 -1840 
1710 0 0 
-1330 0 -2030 
1746.86 0 -2239.15 
1896.23 0 -2211.79 
760 0 -320 
570 0 -510 
569.927 0 -221.512 
-1900.82 0 -146.848 
-2000 0 0 
-1808.03 0 0 
949.611 0 -261.114 
950 0 -510 
-2000 0 -215.88 
-1716.26 0 -152.35 
2000 0 -2409.83 
2000 0 -2220 
-2000 0 -1246.21 
-1817.32 0 -1452.6 
-2000 0 -1460 
-2000 0 -1080 
-1829.55 0 -1076.8 
5.68434e-14 0 -890 
0 0 -700 
190 0 -890 
2000 0 -2036.46 
1807.68 0 -1840.03 
2000 0 -1840 
-190 0 -890 
0 0 -1080 
760 0 -1650 
760 0 -1840 
570 0 -1650 
-1520.67 0 0 
760 0 -1460 
760 0 -700 
570 0 -700 
950 0 -1650 
190 0 -1080 
380 0 -1080 
950 0 -700 
-2000 0 -890 
-2000 0 -700 
190 0 -700 
380 0 -700 
570 0 -890 
-760 0 -1650 
-570 0 -1650 
-760 0 -1840 
190 0 -510 
950 0 -890 
950 0 -1080 
-950 0 -1650 
379.904 0 -313.205 
760 0 -1080 
-760 0 -1460 
-380 0 -1650 
-380 0 -1460 
-380 0 -1840 
-190 0 -510 
-1710 0 -890 
190 0 -1270 
-1716.34 0 -700.059 
-1140 0 -1650 
190 0 -1460 
1520 0 -1270 
-1140 0 -1460 
-950 0 -1080 
-760 0 -1080 
-190 0 -700 
-950 0 -700 
2000 0 -156.51 
1900 0 -320 
-760 0 -2030 
-760 0 -2220 
-380 0 -700 
1140 0 -510 
-570 0 -700 
2000 0 -320 
-570 0 -2030 
1900 0 0 
1140 0 -320 
-570 0 -890 
-190 0 -1080 
-190 0 -1270 
-380 0 -1080 
760 0 -2030 
570 0 -2030 
2000 0 0 
570 0 -1270 
570 0 -1080 
380 0 -1650 
380 0 -1840 
950 0 -1270 
380 0 -1460 
369.304 0 0 
-1520 0 -890 
1130.42 0 0 
950 0 0 
1140 0 -1650 
570 0 -1460 
570 0 0 
1140 0 -1460 
950 0 -1460 
1330 0 -1840 
-769.816 0 0 
1330 0 -1460 
760 0 -1270 
-1330 0 -1080 
1520 0 -510 
0 0 -1270 
2000 0 -510 
-1330 0 -700 
190 0 -2030 
190 0 -1840 
-1520 0 -2030 
-1520 0 -2220 
0 0 -510 
2000 0 -700 
380 0 -890 
2000 0 -3155.77 
2000 0 -3300 
1900 0 -3300 
-760 0 -890 
380 0 -1270 
950 0 -1840 
570 0 -1840 
570 0 -2220 
380 0 -2030 
1151.55 0 -3170.73 
1235 0 -3300 
1324.23 0 -3300 
1140 0 -3300 
-380 0 -2030 
-190 0 -2030 
950 0 -2220 
1520 0 -2790 
760 0 -890 
-570 0 -2220 
-570 0 -1840 
1140 0 -1270 
-2000 0 -3157.52 
-950 0 -2220 
1330 0 -2220 
2000 0 -1665.75 
2000 0 -1543.03 
760 0 -510 
-1900 0 -3300 
771.886 0 0 
-2000 0 -3300 
-1330 0 -1460 
1140 0 -890 
-1330 0 -1840 
-1520 0 -2790 
-1520 0 -2600 
-190 0 -1840 
-567.342 0 -2997.58 
380 0 -510 
-1235 0 -3300 
-1330 0 -3300 
-2000 0 -1626.17 
950 0 -2600 
-1140 0 -3170 
-950 0 -3170 
-950 0 -1270 
-1045 0 -3300 
1520 0 -890 
-570 0 -1080 
-570 0 -1270 
1900 0 -1270 
2000 0 -1360.14 
1900.23 0 -1451.86 
-950 0 -1840 
1900.21 0 -1087.68 
2000 0 -1179.5 
-950 0 -1460 
1710 0 -1460 
2000 0 -876.59 
2000 0 -1002.37 
-427.017 0 -3300 
-190 0 -2600 
-1710 0 0 
-570.855 0 -3160.61 
190 0 -2600 
-570 0 -1460 
-190 0 -1460 
0 0 -2790 
570 0 -3300 
-950 0 -2600 
-380 0 -890 
367.142 0 -3300 
-1330 0 -2220 
-760 0 -1270 
-570 0 -2600 
-1140 0 -1270 
-950 0 -2980 
1520 0 -2410 
-855 0 -3300 
-380 0 -510 
-190 0 -2220 
190 0 -2220 
-572.876 0 -3300 
-665 0 -3300 
0 0 -2030 
-380 0 -1270 
-1330 0 -2600 
570 0 -2600 
-760 0 -2410 
-1520 0 -2410 
-760 0 -3170 

CELLS 707 2828
3 0 1 2 
3 0 2 3 
3 0 3 4 
3 0 4 1 
3 5 6 7 
3 5 8 9 
3 5 7 8 
3 5 9 6 
3 10 11 12 
3 10 12 13 
3 10 9 11 
3 10 13 9 
3 14 15 16 
3 14 13 17 
3 14 16 13 
3 14 17 15 
3 18 19 20 
3 18 21 22 
3 18 22 19 
3 18 20 21 
3 23 24 25 
3 23 25 26 
3 26 27 28 
3 26 25 29 
3 28 23 26 
3 30 31 32 
3 30 33 31 
3 30 32 34 
3 30 34 33 
3 35 17 36 
3 35 37 17 
3 35 38 37 
3 35 36 38 
3 39 38 21 
3 40 8 41 
3 39 21 42 
3 41 43 44 
3 39 45 38 
3 41 44 46 
3 39 42 45 
3 47 48 41 
3 49 50 51 
3 49 51 52 
3 41 48 43 
3 49 52 33 
3 49 33 50 
3 53 54 31 
3 53 55 20 
3 53 31 55 
3 53 20 54 
3 56 57 58 
3 58 59 56 
3 59 60 61 
3 59 61 56 
3 56 61 62 
3 63 64 7 
3 63 7 65 
3 63 66 64 
3 67 16 68 
3 63 65 66 
3 67 68 69 
3 70 71 72 
3 73 74 75 
3 67 6 16 
3 70 76 71 
3 77 78 73 
3 67 69 6 
3 70 72 79 
3 80 24 73 
3 70 79 76 
3 80 73 78 
3 81 69 82 
3 81 82 83 
3 78 84 80 
3 81 65 69 
3 81 83 65 
3 85 86 87 
3 77 73 75 
3 88 89 90 
3 90 91 86 
3 92 89 93 
3 90 86 85 
3 94 95 96 
3 92 93 97 
3 88 90 85 
3 85 98 88 
3 99 100 94 
3 97 93 101 
3 100 95 94 
3 94 102 99 
3 103 104 92 
3 105 79 82 
3 105 106 79 
3 92 97 103 
3 105 107 106 
3 108 109 110 
3 105 82 107 
3 111 66 112 
3 113 114 108 
3 111 91 90 
3 111 115 91 
3 110 113 108 
3 111 112 83 
3 108 114 116 
3 117 118 119 
3 117 119 120 
3 121 122 123 
3 117 120 124 
3 117 124 118 
3 125 100 118 
3 125 118 126 
3 121 110 109 
3 125 126 127 
3 125 127 100 
3 128 110 121 
3 129 28 27 
3 130 131 132 
3 130 126 131 
3 123 133 128 
3 130 132 134 
3 123 128 121 
3 135 28 129 
3 130 134 126 
3 136 137 138 
3 139 140 141 
3 136 142 143 
3 139 142 140 
3 136 138 142 
3 144 135 129 
3 139 141 145 
3 136 143 137 
3 146 147 148 
3 139 145 142 
3 149 150 151 
3 129 152 144 
3 146 153 154 
3 155 127 156 
3 149 157 150 
3 158 148 159 
3 155 156 160 
3 149 76 157 
3 158 161 162 
3 155 163 127 
3 149 151 76 
3 164 144 152 
3 158 146 148 
3 155 160 163 
3 158 165 161 
3 164 166 167 
3 168 169 153 
3 168 170 171 
3 168 153 146 
3 172 173 174 
3 168 162 170 
3 172 174 175 
3 176 144 164 
3 177 178 179 
3 174 180 175 
3 177 179 181 
3 167 176 164 
3 177 182 178 
3 175 180 183 
3 184 185 51 
3 177 181 186 
3 184 187 185 
3 177 160 182 
3 175 188 172 
3 184 51 189 
3 184 189 187 
3 115 190 191 
3 192 193 194 
3 195 196 197 
3 192 198 199 
3 195 181 200 
3 195 201 181 
3 202 191 203 
3 195 197 201 
3 195 200 196 
3 86 91 115 
3 86 115 202 
3 115 191 202 
3 204 205 206 
3 202 87 86 
3 204 207 208 
3 209 210 211 
3 212 213 214 
3 208 140 204 
3 209 215 210 
3 191 190 71 
3 209 211 216 
3 140 205 204 
3 209 216 215 
3 217 218 219 
3 95 163 220 
3 217 219 221 
3 71 213 212 
3 222 223 193 
3 163 186 201 
3 217 221 224 
3 225 211 226 
3 191 71 212 
3 222 199 227 
3 228 229 182 
3 217 224 218 
3 230 231 211 
3 212 203 191 
3 222 232 223 
3 233 234 235 
3 236 231 230 
3 237 154 238 
3 233 235 239 
3 236 133 240 
3 237 238 241 
3 220 163 201 
3 233 239 242 
3 128 133 236 
3 237 227 147 
3 233 242 234 
3 210 230 211 
3 237 222 227 
3 220 96 95 
3 243 234 244 
3 210 236 230 
3 228 208 207 
3 243 245 234 
3 246 110 128 
3 243 4 245 
3 246 113 110 
3 247 208 228 
3 243 244 4 
3 248 225 226 
3 182 249 247 
3 250 187 143 
3 1 248 251 
3 252 171 150 
3 182 247 228 
3 250 253 239 
3 216 211 225 
3 252 168 171 
3 131 254 132 
3 250 239 187 
3 216 225 248 
3 252 169 168 
3 131 255 254 
3 250 143 253 
3 256 246 210 
3 252 150 169 
3 131 126 257 
3 258 259 172 
3 260 261 185 
3 256 262 246 
3 263 147 199 
3 124 120 264 
3 258 265 259 
3 260 235 266 
3 256 215 262 
3 263 159 147 
3 124 131 257 
3 258 172 267 
3 260 185 235 
3 256 210 215 
3 263 268 159 
3 124 264 269 
3 260 266 261 
3 270 271 272 
3 263 199 268 
3 124 257 118 
3 273 274 218 
3 270 216 271 
3 273 107 68 
3 270 272 215 
3 258 267 275 
3 273 68 274 
3 270 215 216 
3 273 218 107 
3 276 226 277 
3 278 219 279 
3 280 238 154 
3 278 281 219 
3 241 276 277 
3 194 240 282 
3 283 134 141 
3 278 2 281 
3 241 238 280 
3 240 133 123 
3 283 156 134 
3 278 279 2 
3 241 277 232 
3 240 123 282 
3 284 198 285 
3 283 247 156 
3 286 157 106 
3 287 276 221 
3 282 288 194 
3 283 141 247 
3 286 224 289 
3 290 221 280 
3 282 123 122 
3 268 198 284 
3 286 289 157 
3 106 291 79 
3 180 268 284 
3 114 119 292 
3 286 106 224 
3 157 293 150 
3 294 241 280 
3 157 291 106 
3 119 99 292 
3 294 280 221 
3 157 76 291 
3 119 114 120 
3 284 183 180 
3 294 221 276 
3 224 221 290 
3 165 173 259 
3 119 118 99 
3 292 116 114 
3 294 276 241 
3 289 224 290 
3 141 295 145 
3 296 159 174 
3 297 216 248 
3 289 290 280 
3 165 259 298 
3 141 140 208 
3 296 165 158 
3 297 271 216 
3 289 293 157 
3 156 127 299 
3 296 158 159 
3 297 1 271 
3 289 169 293 
3 298 259 265 
3 156 249 160 
3 296 174 165 
3 292 99 102 
3 297 248 1 
3 279 300 301 
3 134 299 126 
3 302 303 176 
3 304 246 128 
3 2 1 251 
3 134 295 141 
3 302 176 137 
3 304 236 210 
3 2 279 301 
3 298 305 161 
3 134 132 295 
3 302 189 303 
3 304 128 236 
3 2 301 3 
3 134 156 299 
3 302 137 189 
3 304 210 246 
3 219 287 221 
3 161 165 298 
3 247 249 156 
3 306 211 231 
3 281 287 219 
3 247 141 208 
3 307 308 309 
3 306 232 226 
3 281 251 248 
3 306 231 232 
3 281 2 251 
3 307 88 98 
3 310 255 131 
3 306 226 211 
3 281 276 287 
3 310 269 255 
3 311 276 281 
3 312 224 106 
3 307 93 88 
3 310 131 124 
3 311 281 248 
3 313 279 219 
3 310 124 269 
3 311 226 276 
3 274 314 15 
3 138 205 142 
3 311 248 226 
3 274 279 313 
3 307 309 93 
3 315 15 300 
3 218 274 313 
3 315 300 279 
3 218 313 219 
3 316 103 317 
3 315 279 274 
3 218 224 312 
3 103 64 104 
3 316 64 103 
3 315 274 15 
3 107 312 106 
3 103 318 317 
3 316 317 319 
3 320 266 245 
3 107 218 312 
3 103 97 318 
3 316 48 47 
3 320 245 321 
3 107 82 322 
3 316 319 48 
3 320 321 45 
3 68 314 274 
3 323 92 66 
3 320 45 266 
3 68 16 314 
3 323 111 90 
3 68 107 322 
3 323 90 92 
3 68 322 69 
3 93 89 88 
3 323 66 111 
3 324 237 241 
3 266 45 325 
3 93 309 101 
3 324 241 232 
3 235 326 266 
3 205 140 142 
3 327 289 280 
3 328 29 25 
3 324 222 237 
3 185 329 51 
3 82 330 83 
3 327 280 154 
3 324 232 222 
3 331 151 332 
3 261 266 325 
3 69 322 82 
3 327 154 169 
3 328 25 80 
3 331 214 213 
3 261 329 185 
3 72 83 330 
3 327 169 289 
3 261 52 329 
3 72 190 115 
3 333 192 199 
3 328 80 334 
3 335 194 288 
3 213 151 331 
3 261 325 42 
3 79 330 82 
3 333 222 193 
3 80 84 334 
3 328 334 336 
3 143 142 337 
3 79 72 330 
3 333 193 192 
3 80 25 24 
3 335 285 198 
3 253 143 337 
3 79 291 76 
3 333 199 222 
3 253 337 145 
3 71 190 72 
3 338 146 154 
3 187 189 339 
3 113 120 114 
3 71 76 213 
3 338 237 147 
3 340 23 341 
3 187 339 143 
3 257 126 118 
3 65 83 112 
3 338 154 237 
3 340 341 34 
3 4 3 342 
3 95 100 127 
3 66 65 112 
3 338 147 146 
3 75 74 32 
3 340 34 73 
3 343 54 20 
3 198 192 335 
3 234 326 235 
3 145 337 142 
3 66 104 64 
3 344 193 231 
3 75 345 346 
3 340 73 23 
3 19 343 20 
3 347 206 205 
3 245 326 234 
3 132 145 295 
3 348 65 7 
3 344 236 240 
3 75 346 77 
3 349 32 350 
3 22 58 19 
3 192 194 335 
3 245 342 321 
3 254 255 351 
3 348 69 65 
3 344 240 193 
3 349 350 352 
3 353 168 146 
3 138 167 347 
3 245 266 326 
3 254 351 132 
3 316 47 64 
3 344 231 236 
3 163 95 127 
3 349 352 345 
3 353 158 162 
3 205 138 347 
3 245 4 342 
3 354 355 255 
3 47 7 64 
3 356 357 358 
3 163 160 186 
3 349 75 32 
3 353 146 158 
3 347 167 166 
3 359 187 239 
3 262 264 120 
3 356 360 361 
3 349 345 75 
3 353 162 168 
3 359 185 187 
3 269 354 255 
3 356 361 357 
3 359 235 185 
3 269 264 262 
3 356 358 171 
3 359 239 235 
3 272 354 269 
3 356 171 360 
3 362 239 253 
3 272 355 354 
3 151 150 363 
3 364 365 162 
3 366 58 57 
3 367 21 38 
3 362 253 351 
3 151 213 76 
3 201 186 181 
3 367 22 21 
3 362 351 242 
3 364 161 305 
3 73 34 74 
3 201 368 220 
3 369 343 19 
3 11 60 12 
3 362 242 239 
3 73 24 23 
3 201 197 368 
3 13 370 17 
3 371 355 244 
3 358 363 171 
3 172 259 173 
3 13 12 370 
3 371 244 234 
3 358 151 363 
3 172 188 267 
3 19 58 366 
3 371 234 242 
3 371 242 355 
3 179 200 181 
3 162 161 364 
3 372 244 271 
3 19 366 369 
3 372 4 244 
3 194 193 240 
3 59 58 22 
3 373 22 36 
3 372 271 1 
3 268 199 198 
3 59 12 60 
3 373 12 59 
3 372 1 4 
3 365 360 162 
3 147 227 199 
3 373 59 22 
3 40 41 46 
3 159 268 180 
3 373 36 12 
3 46 44 374 
3 361 360 365 
3 375 55 31 
3 182 229 178 
3 376 272 269 
3 36 370 12 
3 52 55 375 
3 376 269 262 
3 36 17 370 
3 51 329 52 
3 148 147 159 
3 376 215 272 
3 377 46 374 
3 36 22 367 
3 51 378 189 
3 171 170 360 
3 376 262 215 
3 36 367 38 
3 332 151 358 
3 51 50 378 
3 153 169 154 
3 379 242 351 
3 74 34 32 
3 377 62 61 
3 33 375 31 
3 379 255 355 
3 6 348 7 
3 33 52 375 
3 160 249 182 
3 379 351 255 
3 174 159 180 
3 11 40 46 
3 6 69 348 
3 332 358 357 
3 380 20 55 
3 177 186 160 
3 379 355 242 
3 174 173 165 
3 11 46 377 
3 8 7 47 
3 21 20 380 
3 127 126 299 
3 381 145 132 
3 137 176 167 
3 61 60 11 
3 47 41 8 
3 42 325 45 
3 381 351 253 
3 137 167 138 
3 61 11 377 
3 9 40 11 
3 42 380 55 
3 293 169 150 
3 381 132 351 
3 137 339 189 
3 9 8 40 
3 350 382 54 
3 42 21 380 
3 381 253 145 
3 137 143 339 
3 383 115 111 
3 350 384 352 
3 385 113 246 
3 386 321 37 
3 99 118 100 
3 92 90 89 
3 383 83 72 
3 350 32 382 
3 387 17 37 
3 385 262 120 
3 386 38 45 
3 92 104 66 
3 383 72 115 
3 369 366 388 
3 387 37 300 
3 385 120 113 
3 386 37 38 
3 383 111 83 
3 369 388 389 
3 15 17 387 
3 385 246 262 
3 386 45 321 
3 390 300 37 
3 369 54 343 
3 15 387 300 
3 391 271 244 
3 382 31 54 
3 390 321 3 
3 341 28 135 
3 170 162 360 
3 314 16 15 
3 391 244 355 
3 382 32 31 
3 390 3 300 
3 341 50 392 
3 391 272 271 
3 231 193 223 
3 392 50 33 
3 390 37 321 
3 393 9 13 
3 341 392 34 
3 391 355 272 
3 232 231 223 
3 392 33 34 
3 3 301 300 
3 393 6 9 
3 341 23 28 
3 232 277 226 
3 394 42 55 
3 342 3 321 
3 393 13 16 
3 303 189 378 
3 394 52 261 
3 393 16 6 
3 303 135 144 
3 394 261 42 
3 303 144 176 
3 394 55 52 
3 303 378 50 
3 363 150 171 
3 395 341 135 
3 395 135 303 
3 395 303 50 
3 395 50 341 
3 396 389 384 
3 396 350 54 
3 396 384 350 
3 396 369 389 
3 396 54 369 

CELL_TYPES 707
5
5
5
5
5
5
5
5
5
5
5
5
5
5
5
5
5
5
5
5
5
5
5
5
5
5
5
5
5
5
5
5
5
5
5
5
5
5
5
5
5
5
5
5
5
5
5
5
5
5
5
5
5
5
5
5
5
5
5
5
5
5
5
5
5
5
5
5
5
5
5
5
5
5
5
5
5
5
5
5
5
5
5
5
5
5
5
5
5
5
5
5
5
5
5
5
5
5
5
5
5
5
5
5
5
5
5
5
5
5
5
5
5
5
5
5
5
5
5
5
5
5
5
5
5
5
5
5
5
5
5
5
5
5
5
5
5
5
5
5
5
5
5
5
5
5
5
5
5
5
5
5
5
5
5
5
5
5
5
5
5
5
5
5
5
5
5
5
5
5
5
5
5
5
5
5
5
5
5
5
5
5
5
5
5
5
5
5
5
5
5
5
5
5
5
5
5
5
5
5
5
5
5
5
5
5
5
5
5
5
5
5
5
5
5
5
5
5
5
5
5
5
5
5
5
5
5
5
5
5
5
5
5
5
5
5
5
5
5
5
5
5
5
5
5
5
5
5
5
5
5
5
5
5
5
5
5
5
5
5
5
5
5
5
5
5
5
5
5
5
5
5
5
5
5
5
5
5
5
5
5
5
5
5
5
5
5
5
5
5
5
5
5
5
5
5
5
5
5
5
5
5
5
5
5
5
5
5
5
5
5
5
5
5
5
5
5
5
5
5
5
5
5
5
5
5
5
5
5
5
5
5
5
5
5
5
5
5
5
5
5
5
5
5
5
5
5
5
5
5
5
5
5
5
5
5
5
5
5
5
5
5
5
5
5
5
5
5
5
5
5
5
5
5
5
5
5
5
5
5
5
5
5
5
5
5
5
5
5
5
5
5
5
5
5
5
5
5
5
5
5
5
5
5
5
5
5
5
5
5
5
5
5
5
5
5
5
5
5
5
5
5
5
5
5
5
5
5
5
5
5
5
5
5
5
5
5
5
5
5
5
5
5
5
5
5
5
5
5
5
5
5
5
5
5
5
5
5
5
5
5
5
5
5
5
5
5
5
5
5
5
5
5
5
5
5
5
5
5
5
5
5
5
5
5
5
5
5
5
5
5
5
5
5
5
5
5
5
5
5
5
5
5
5
5
5
5
5
5
5
5
5
5
5
5
5
5
5
5
5
5
5
5
5
5
5
5
5
5
5
5
5
5
5
5
5
5
5
5
5
5
5
5
5
5
5
5
5
5
5
5
5
5
5
5
5
5
5
5
5
5
5
5
5
5
5
5
5
5
5
5
5
5
5
5
5
5
5
5
5
5
5
5
5
5
5
5
5
5
5
5
5
5
5
5
5
5
5
5
5
5
5
5
5
5
5
5
5
5
5
5
5
5
5
5
5
5
5
5
5
5
5
5
5
5
5
5
5
5
5
5
5
5
5
5
5
5
5
5
5
5
5
5
5
5
5
5
5
5
5
5
5
5
5
5
5
5
5
5
5
5
5
5
5
5
5
5
5
5
5
5
5
5
5
5
5
5
5
5
5
5
5
5
5
5
5
5
5
5
5
5
5
5
5
5
5
5
5
5
5
5
5
5
5
5
5
5

POINT_DATA 397
SCALARS matrix_pressure float
LOOKUP_TABLE default
5.500000e+06 4.981818e+06 5.500000e+06 6.018182e+06 
5.500000e+06 8.609091e+06 8.090909e+06 8.609091e+06 
9.135489e+06 8.609091e+06 8.609091e+06 9.127273e+06 
8.609091e+06 8.090909e+06 7.572727e+06 7.054545e+06 
7.572727e+06 7.572727e+06 8.609091e+06 9.163072e+06 
8.609091e+06 8.090909e+06 8.609091e+06 8.609091e+06 
9.171395e+06 9.127273e+06 8.609091e+06 8.090909e+06 
8.090680e+06 9.127273e+06 8.609091e+06 8.609091e+06 
9.127273e+06 8.090909e+06 8.609091e+06 7.572727e+06 
8.090909e+06 7.054545e+06 7.572727e+06 7.572727e+06 
9.127273e+06 9.612208e+06 7.572727e+06 1.000000e+07 
1.000000e+07 7.054545e+06 9.646533e+06 9.127273e+06 
1.000000e+07 7.572727e+06 7.572727e+06 7.054545e+06 
7.572727e+06 8.609091e+06 9.127273e+06 8.090909e+06 
1.000000e+07 1.000000e+07 9.394916e+06 9.127273e+06 
9.196687e+06 9.646483e+06 1.000000e+07 8.609091e+06 
9.130105e+06 8.090909e+06 8.609091e+06 7.572727e+06 
7.054545e+06 7.572727e+06 6.536364e+06 6.536364e+06 
7.054545e+06 9.127273e+06 9.159372e+06 9.629904e+06 
6.018182e+06 1.000000e+07 1.000000e+07 6.536364e+06 
9.524970e+06 7.572727e+06 7.054545e+06 7.572727e+06 
1.000000e+07 8.609091e+06 8.109978e+06 8.090909e+06 
9.127273e+06 9.144031e+06 8.609091e+06 8.090909e+06 
9.127273e+06 9.647636e+06 1.000000e+06 1.598576e+06 
1.000000e+06 1.000000e+07 9.127273e+06 1.617524e+06 
1.872727e+06 1.000000e+07 1.000000e+06 9.621438e+06 
9.174916e+06 6.536364e+06 6.018182e+06 6.536364e+06 
1.000000e+06 1.000000e+06 1.637744e+06 8.090909e+06 
8.090909e+06 1.872727e+06 1.628084e+06 7.572727e+06 
1.000000e+06 2.390909e+06 2.390909e+06 1.872727e+06 
2.390909e+06 1.000000e+06 1.000000e+06 1.356640e+06 
2.909091e+06 2.390909e+06 2.909091e+06 2.390909e+06 
1.872727e+06 7.507514e+06 3.427273e+06 3.427273e+06 
3.945455e+06 1.855374e+06 3.427273e+06 7.572727e+06 
5.500000e+06 6.018182e+06 5.500000e+06 4.463636e+06 
4.463636e+06 3.945455e+06 4.981818e+06 5.500000e+06 
7.040547e+06 4.463636e+06 3.427273e+06 2.909091e+06 
2.909091e+06 5.500000e+06 4.981818e+06 5.494790e+06 
7.054545e+06 3.945455e+06 3.945455e+06 2.390909e+06 
2.909091e+06 5.500000e+06 2.909091e+06 2.390909e+06 
2.390909e+06 2.900004e+06 3.430703e+06 1.872727e+06 
6.500227e+06 2.390909e+06 6.018182e+06 5.995208e+06 
3.945455e+06 4.463636e+06 3.945455e+06 4.463636e+06 
1.360956e+06 1.872727e+06 1.872727e+06 1.000000e+06 
6.536364e+06 2.349615e+06 2.621449e+06 2.135041e+06 
1.630020e+06 1.872727e+06 2.917156e+06 1.000000e+06 
6.536364e+06 6.536364e+06 1.869303e+06 6.018182e+06 
1.000000e+06 6.536364e+06 7.106779e+06 7.032167e+06 
1.872727e+06 2.390909e+06 1.604124e+06 1.400496e+06 
1.000000e+06 1.000000e+06 1.712129e+06 2.390909e+06 
1.588763e+06 1.415500e+06 7.572272e+06 7.054545e+06 
4.398765e+06 4.961641e+06 4.981818e+06 3.945455e+06 
3.936733e+06 3.427273e+06 2.909091e+06 3.427273e+06 
6.553987e+06 6.018251e+06 6.018182e+06 3.427273e+06 
3.945455e+06 5.500000e+06 6.018182e+06 5.500000e+06 
1.000000e+06 4.981818e+06 2.909091e+06 2.909091e+06 
5.500000e+06 3.945455e+06 3.945455e+06 2.909091e+06 
3.427273e+06 2.909091e+06 2.909091e+06 2.909091e+06 
3.427273e+06 5.500000e+06 5.500000e+06 6.018182e+06 
2.390909e+06 3.427273e+06 3.945455e+06 5.500000e+06 
1.854194e+06 3.945455e+06 4.981818e+06 5.500000e+06 
4.981818e+06 6.018182e+06 2.390909e+06 3.427273e+06 
4.463636e+06 2.909252e+06 5.500000e+06 4.981818e+06 
4.463636e+06 4.981818e+06 3.945455e+06 3.945455e+06 
2.909091e+06 2.909091e+06 1.426845e+06 1.872727e+06 
6.536364e+06 7.054545e+06 2.909091e+06 2.390909e+06 
2.909091e+06 1.872727e+06 6.536364e+06 1.000000e+06 
1.872727e+06 3.427273e+06 3.945455e+06 4.463636e+06 
3.945455e+06 6.536364e+06 6.536364e+06 1.000000e+06 
4.463636e+06 3.945455e+06 5.500000e+06 6.018182e+06 
4.463636e+06 4.981818e+06 1.000000e+06 3.427273e+06 
1.000000e+06 1.000000e+06 5.500000e+06 4.981818e+06 
1.000000e+06 4.981818e+06 4.981818e+06 6.018182e+06 
1.000000e+06 4.981818e+06 4.463636e+06 3.945455e+06 
2.390909e+06 4.463636e+06 2.390909e+06 2.909091e+06 
6.536364e+06 6.018182e+06 6.536364e+06 7.054545e+06 
2.390909e+06 2.909091e+06 3.427273e+06 9.606655e+06 
1.000000e+07 1.000000e+07 3.427273e+06 4.463636e+06 
6.018182e+06 6.018182e+06 7.054545e+06 6.536364e+06 
9.647435e+06 1.000000e+07 1.000000e+07 1.000000e+07 
6.536364e+06 6.536364e+06 7.054545e+06 8.609091e+06 
3.427273e+06 7.054545e+06 6.018182e+06 4.463636e+06 
9.611408e+06 7.054545e+06 7.054545e+06 5.542964e+06 
5.208251e+06 2.390909e+06 1.000000e+07 1.000000e+06 
1.000000e+07 4.981818e+06 3.427273e+06 6.018182e+06 
8.609091e+06 8.090909e+06 6.018182e+06 9.175207e+06 
2.390909e+06 1.000000e+07 1.000000e+07 5.434996e+06 
8.090909e+06 9.645455e+06 9.645455e+06 4.463636e+06 
1.000000e+07 3.427273e+06 3.945455e+06 4.463636e+06 
4.463636e+06 4.709474e+06 4.959627e+06 6.018182e+06 
3.966412e+06 4.216829e+06 4.981818e+06 4.981818e+06 
3.390699e+06 3.733726e+06 1.000000e+07 8.090909e+06 
1.000000e+06 9.619837e+06 8.090909e+06 4.981818e+06 
4.981818e+06 8.609091e+06 1.000000e+07 8.090909e+06 
3.427273e+06 1.000000e+07 7.054545e+06 4.463636e+06 
8.090909e+06 4.463636e+06 9.127273e+06 7.572727e+06 
1.000000e+07 2.390909e+06 7.054545e+06 7.054545e+06 
1.000000e+07 1.000000e+07 6.536364e+06 4.463636e+06 
8.090909e+06 8.090909e+06 7.572727e+06 7.572727e+06 
9.645455e+06 
