# vtk DataFile Version 2.0
Finite-element dataset: variable: matrix pressure, timestep: 100
ASCII

DATASET UNSTRUCTURED_GRID
POINTS 397 float
0 0 -1650 
0 0 -1460 
190 0 -1650 
0 0 -1840 
-190 0 -1650 
760 0 -2790 
760 0 -2600 
950 0 -2790 
750.65 0 -2983.01 
570 0 -2790 
380 0 -2790 
380 0 -2980 
190 0 -2790 
380 0 -2600 
380 0 -2410 
380 0 -2220 
570 0 -2410 
190 0 -2410 
-380 0 -2790 
-386.906 0 -2993.13 
-570 0 -2790 
-380 0 -2600 
-190 0 -2790 
-1710 0 -2790 
-1711.07 0 -2996.18 
-1900 0 -2980 
-2000 0 -2790 
-2000 0 -2600 
-1805.41 0 -2599.92 
-2000 0 -2980 
-1140 0 -2790 
-950 0 -2790 
-1140 0 -2980 
-1140 0 -2600 
-1330 0 -2790 
0 0 -2410 
0 0 -2600 
-4.26326e-14 0 -2220 
-190 0 -2410 
-380 0 -2410 
570 0 -2980 
717.921 0 -3157.81 
-570 0 -2410 
771.617 0 -3300 
665 0 -3300 
-380 0 -2220 
574.457 0 -3170.4 
950 0 -2980 
956.346 0 -3300 
-1140 0 -2410 
-1330 0 -2410 
-1140 0 -2220 
-950 0 -2410 
-760 0 -2790 
-760 0 -2980 
-760 0 -2600 
5.37597 0 -3300 
-190 0 -3300 
-185.059 0 -3078.14 
1.13687e-13 0 -2980 
214.977 0 -3005.45 
185.002 0 -3170.38 
190 0 -3300 
1140 0 -2790 
1142.37 0 -2981.04 
1140 0 -2600 
1330 0 -2790 
760 0 -2410 
760 0 -2220 
-1520 0 -2980 
-1344.88 0 -2991.77 
-1335.45 0 -3164.3 
950 0 -2410 
-1441.29 0 -3300 
-1620.93 0 -3300 
1520 0 -2030 
1710 0 -2030 
1520 0 -2220 
-1751.45 0 -3125.82 
1520 0 -1840 
1330 0 -2030 
-1710 0 -3300 
1140 0 -2410 
1140 0 -2220 
1330 0 -2410 
2000 0 -2790 
1900.16 0 -2606.99 
2000 0 -2600 
1520 0 -2980 
1719.03 0 -2986.14 
1722.4 0 -3170.8 
1900 0 -2980 
1710 0 -2790 
1475.16 0 -3300 
1710 0 -2600 
-1140 0 0 
-1326.97 0 -219.478 
-1330 0 0 
1710 0 -3300 
2000 0 -2980 
-949.549 0 -226.426 
-1140 0 -320 
1323.41 0 -3161.19 
1332.92 0 -2997.47 
-950 0 0 
1140 0 -2030 
1140 0 -1840 
950 0 -2030 
-380 0 0 
-190 0 0 
-187.563 0 -233.84 
-380 0 -320 
-566.023 0 -230.298 
1520 0 -2600 
1330 0 -2600 
-570 0 0 
1710 0 -2410 
0 0 0 
190 0 0 
210.544 0 -130.768 
-760 0 -510 
-950 0 -510 
-760 0 -320 
-570 0 -510 
-760 0 -700 
-1140 0 -510 
-1140 0 -700 
0 0 -320 
-1330 0 -510 
182.766 0 -313.637 
-2000 0 -2386.09 
-1140 0 -890 
-950 0 -890 
-1140 0 -1080 
-1520 0 -1650 
-1520 0 -1840 
-1710 0 -1650 
-1330 0 -890 
-1520 0 -1460 
-1330 0 -1650 
-1710 0 -2410 
-1520 0 -1270 
-1710 0 -1270 
-1520 0 -1080 
1520 0 -1650 
1520 0 -1460 
1715.91 0 -1648.09 
-1815.16 0 -2214.87 
-1330 0 -1270 
1330 0 -1650 
-2000 0 -2220 
-1520 0 -510 
-1520 0 -700 
1330 0 -890 
1140 0 -700 
1330 0 -700 
-1710 0 -510 
1330 0 -1080 
1140 0 -1080 
-1520 0 -320 
1520 0 -700 
1330 0 -510 
-2000 0 -2016.75 
1808.25 0 -696.668 
1715.8 0 -891.258 
-2000 0 -1840 
-1804.62 0 -1831.58 
1710 0 -510 
1724.37 0 -132.351 
1710 0 -320 
1520 0 -320 
1520 0 -1080 
1330 0 -1270 
1508.63 0 0 
1710 0 -1080 
1710 0 -1270 
1330.37 0 -231.007 
-1710 0 -2030 
-1890.36 0 -494.859 
-2000 0 -594.531 
-2000 0 -416.182 
1330 0 0 
-1900 0 -320 
-1877.09 0 -702.957 
1710 0 0 
-1140 0 -2030 
-950 0 -2030 
-1716.01 0 -318.744 
-1140 0 -1840 
-1330 0 -2030 
1746.86 0 -2239.15 
1896.23 0 -2211.79 
-1900.82 0 -146.848 
-2000 0 0 
-1808.03 0 0 
-2000 0 -215.88 
760 0 -320 
570 0 -510 
569.927 0 -221.512 
-1716.26 0 -152.35 
949.611 0 -261.114 
950 0 -510 
2000 0 -2409.83 
2000 0 -2220 
-2000 0 -1246.21 
-1817.32 0 -1452.6 
-2000 0 -1460 
-2000 0 -1080 
-1829.55 0 -1076.8 
5.68434e-14 0 -890 
0 0 -700 
190 0 -890 
2000 0 -2036.46 
1807.68 0 -1840.03 
2000 0 -1840 
-190 0 -890 
0 0 -1080 
-1520.67 0 0 
760 0 -1650 
760 0 -1840 
570 0 -1650 
190 0 -1080 
380 0 -1080 
760 0 -1460 
190 0 -700 
380 0 -700 
950 0 -1650 
-2000 0 -890 
-2000 0 -700 
190 0 -510 
760 0 -700 
570 0 -700 
379.904 0 -313.205 
-760 0 -1650 
-570 0 -1650 
-760 0 -1840 
950 0 -700 
-950 0 -1650 
570 0 -890 
-760 0 -1460 
950 0 -890 
950 0 -1080 
760 0 -1080 
-190 0 -510 
-380 0 -1650 
-380 0 -1460 
-380 0 -1840 
190 0 -1270 
-1710 0 -890 
190 0 -1460 
-1716.34 0 -700.059 
-1140 0 -1650 
1520 0 -1270 
-1140 0 -1460 
-190 0 -700 
-380 0 -700 
-950 0 -1080 
2000 0 -156.51 
1900 0 -320 
-760 0 -2030 
-760 0 -2220 
-760 0 -1080 
1140 0 -510 
2000 0 -320 
-570 0 -2030 
-950 0 -700 
1900 0 0 
-190 0 -1080 
-190 0 -1270 
-380 0 -1080 
-570 0 -700 
1140 0 -320 
760 0 -2030 
570 0 -2030 
-570 0 -890 
2000 0 0 
570 0 -1270 
570 0 -1080 
950 0 -1270 
380 0 -1650 
380 0 -1840 
-1520 0 -890 
380 0 -1460 
369.304 0 0 
570 0 -1460 
1130.42 0 0 
950 0 0 
950 0 -1460 
1140 0 -1650 
570 0 0 
1330 0 -1840 
1140 0 -1460 
-769.816 0 0 
1330 0 -1460 
760 0 -1270 
1520 0 -510 
0 0 -1270 
2000 0 -510 
-1330 0 -1080 
190 0 -2030 
190 0 -1840 
-1330 0 -700 
-1520 0 -2030 
-1520 0 -2220 
0 0 -510 
2000 0 -700 
380 0 -890 
2000 0 -3155.77 
2000 0 -3300 
1900 0 -3300 
-760 0 -890 
950 0 -1840 
570 0 -1840 
380 0 -1270 
570 0 -2220 
380 0 -2030 
1324.23 0 -3300 
1235 0 -3300 
1151.55 0 -3170.73 
1140 0 -3300 
950 0 -2220 
-380 0 -2030 
-190 0 -2030 
1520 0 -2790 
760 0 -890 
-570 0 -2220 
-570 0 -1840 
-950 0 -2220 
1140 0 -1270 
-2000 0 -3157.52 
1330 0 -2220 
2000 0 -1665.75 
2000 0 -1543.03 
-1900 0 -3300 
771.886 0 0 
760 0 -510 
-1330 0 -1460 
-2000 0 -3300 
-1330 0 -1840 
1140 0 -890 
-1235 0 -3300 
-1330 0 -3300 
-1520 0 -2790 
-1520 0 -2600 
-567.342 0 -2997.58 
-190 0 -1840 
380 0 -510 
-2000 0 -1626.17 
950 0 -2600 
1520 0 -890 
-1140 0 -3170 
-950 0 -3170 
-950 0 -1270 
-1045 0 -3300 
-950 0 -1840 
-570 0 -1080 
-570 0 -1270 
1900 0 -1270 
2000 0 -1360.14 
1900.23 0 -1451.86 
1900.21 0 -1087.68 
2000 0 -1179.5 
-190 0 -2600 
-950 0 -1460 
2000 0 -876.59 
2000 0 -1002.37 
-427.017 0 -3300 
190 0 -2600 
-570.855 0 -3160.61 
-570 0 -1460 
1710 0 -1460 
-1710 0 0 
-190 0 -1460 
0 0 -2790 
570 0 -3300 
-950 0 -2600 
-380 0 -890 
367.142 0 -3300 
-1330 0 -2220 
-760 0 -1270 
-570 0 -2600 
-1140 0 -1270 
-950 0 -2980 
1520 0 -2410 
-855 0 -3300 
-380 0 -510 
-190 0 -2220 
-572.876 0 -3300 
-665 0 -3300 
0 0 -2030 
-380 0 -1270 
190 0 -2220 
570 0 -2600 
-1330 0 -2600 
-760 0 -2410 
-1520 0 -2410 
-760 0 -3170 

CELLS 707 2828
3 0 1 2 
3 0 2 3 
3 0 3 4 
3 0 4 1 
3 5 6 7 
3 5 8 9 
3 5 7 8 
3 5 9 6 
3 10 11 12 
3 10 12 13 
3 10 9 11 
3 10 13 9 
3 14 15 16 
3 14 13 17 
3 14 16 13 
3 14 17 15 
3 18 19 20 
3 18 21 22 
3 18 22 19 
3 18 20 21 
3 23 24 25 
3 23 25 26 
3 26 27 28 
3 26 25 29 
3 28 23 26 
3 30 31 32 
3 30 33 31 
3 30 32 34 
3 30 34 33 
3 35 17 36 
3 35 37 17 
3 35 38 37 
3 35 36 38 
3 39 38 21 
3 40 8 41 
3 39 21 42 
3 41 43 44 
3 39 45 38 
3 41 44 46 
3 39 42 45 
3 47 48 41 
3 49 50 51 
3 49 51 52 
3 41 48 43 
3 49 52 33 
3 49 33 50 
3 53 54 31 
3 53 55 20 
3 53 31 55 
3 53 20 54 
3 56 57 58 
3 58 59 56 
3 59 60 61 
3 59 61 56 
3 56 61 62 
3 63 64 7 
3 63 7 65 
3 63 66 64 
3 67 16 68 
3 69 70 71 
3 63 65 66 
3 67 68 72 
3 73 74 69 
3 75 76 77 
3 67 6 16 
3 78 24 69 
3 75 79 76 
3 67 72 6 
3 78 69 74 
3 75 77 80 
3 75 80 79 
3 74 81 78 
3 82 72 83 
3 82 83 84 
3 82 65 72 
3 82 84 65 
3 73 69 71 
3 85 86 87 
3 88 89 90 
3 91 89 92 
3 88 90 93 
3 92 94 86 
3 92 86 85 
3 95 96 97 
3 93 90 98 
3 91 92 85 
3 85 99 91 
3 100 101 95 
3 101 96 95 
3 102 103 88 
3 95 104 100 
3 88 93 102 
3 105 80 83 
3 105 106 80 
3 105 107 106 
3 108 109 110 
3 105 83 107 
3 111 112 108 
3 113 66 114 
3 110 111 108 
3 113 94 92 
3 108 112 115 
3 113 116 94 
3 113 114 84 
3 117 118 119 
3 120 121 122 
3 120 122 123 
3 120 123 124 
3 120 124 121 
3 117 110 109 
3 125 101 121 
3 125 121 126 
3 127 110 117 
3 125 126 128 
3 125 128 101 
3 119 129 127 
3 130 28 27 
3 131 132 133 
3 119 127 117 
3 131 126 132 
3 134 135 136 
3 131 133 137 
3 134 138 139 
3 140 28 130 
3 131 137 126 
3 134 136 138 
3 141 142 143 
3 134 139 135 
3 141 138 142 
3 144 145 146 
3 147 140 130 
3 141 143 148 
3 144 149 145 
3 141 148 138 
3 144 79 149 
3 130 150 147 
3 151 128 152 
3 153 154 155 
3 144 146 79 
3 151 152 156 
3 153 157 158 
3 151 159 128 
3 160 155 161 
3 162 147 150 
3 151 156 159 
3 160 163 164 
3 160 153 155 
3 162 165 166 
3 160 167 163 
3 168 169 170 
3 171 172 157 
3 168 170 173 
3 171 174 175 
3 171 157 153 
3 171 164 174 
3 170 176 173 
3 177 147 162 
3 178 179 180 
3 173 176 181 
3 178 180 182 
3 166 177 162 
3 178 183 179 
3 173 184 168 
3 185 186 51 
3 178 182 187 
3 185 188 186 
3 178 156 183 
3 185 51 189 
3 185 189 188 
3 116 190 191 
3 192 193 194 
3 192 182 195 
3 196 197 198 
3 192 199 182 
3 196 200 201 
3 202 191 203 
3 192 194 199 
3 192 195 193 
3 86 94 116 
3 86 116 202 
3 116 191 202 
3 204 205 206 
3 202 87 86 
3 204 207 208 
3 209 210 211 
3 212 213 214 
3 208 142 204 
3 209 215 210 
3 191 190 76 
3 209 211 216 
3 142 205 204 
3 209 216 215 
3 96 159 217 
3 218 219 220 
3 159 187 199 
3 221 211 222 
3 218 220 223 
3 76 213 212 
3 224 225 211 
3 218 223 226 
3 191 76 212 
3 227 228 183 
3 229 225 224 
3 218 226 219 
3 230 231 197 
3 212 203 191 
3 229 129 232 
3 233 234 235 
3 230 201 236 
3 217 159 199 
3 127 129 229 
3 233 235 237 
3 230 238 231 
3 210 224 211 
3 233 237 239 
3 240 158 241 
3 217 97 96 
3 210 229 224 
3 233 239 234 
3 240 241 242 
3 243 110 127 
3 244 234 245 
3 240 236 154 
3 227 208 207 
3 243 111 110 
3 244 246 234 
3 240 230 236 
3 247 221 222 
3 244 4 246 
3 248 208 227 
3 1 247 249 
3 244 245 4 
3 183 250 248 
3 216 211 221 
3 251 188 139 
3 252 175 145 
3 183 248 227 
3 216 221 247 
3 251 253 237 
3 252 171 175 
3 254 243 210 
3 251 237 188 
3 252 172 171 
3 254 255 243 
3 251 139 253 
3 132 256 133 
3 252 145 172 
3 257 258 168 
3 254 215 255 
3 259 260 186 
3 132 261 256 
3 262 154 201 
3 257 263 258 
3 254 210 215 
3 259 235 264 
3 132 126 265 
3 262 161 154 
3 257 168 266 
3 267 268 269 
3 259 186 235 
3 124 123 270 
3 262 271 161 
3 267 216 268 
3 259 264 260 
3 124 132 265 
3 262 201 271 
3 267 269 215 
3 272 273 219 
3 124 270 274 
3 267 215 216 
3 272 107 68 
3 124 265 121 
3 257 266 275 
3 276 222 277 
3 272 68 273 
3 278 241 158 
3 272 219 107 
3 242 276 277 
3 279 220 280 
3 281 137 143 
3 242 241 278 
3 279 282 220 
3 281 152 137 
3 198 232 283 
3 242 277 238 
3 279 2 282 
3 281 248 152 
3 232 129 119 
3 284 276 223 
3 279 280 2 
3 281 143 248 
3 232 119 283 
3 285 200 286 
3 287 223 278 
3 288 149 106 
3 283 289 198 
3 106 290 80 
3 288 226 291 
3 112 122 292 
3 283 119 118 
3 271 200 285 
3 149 293 145 
3 288 291 149 
3 176 271 285 
3 149 290 106 
3 288 106 226 
3 122 100 292 
3 149 79 290 
3 294 242 278 
3 226 223 287 
3 294 278 223 
3 292 115 112 
3 285 181 176 
3 291 226 287 
3 294 223 276 
3 167 169 258 
3 291 287 278 
3 294 276 242 
3 122 112 123 
3 295 161 170 
3 291 293 149 
3 296 216 247 
3 122 121 100 
3 167 258 297 
3 295 167 160 
3 291 172 293 
3 296 268 216 
3 143 298 148 
3 292 100 104 
3 295 160 161 
3 280 299 300 
3 296 1 268 
3 143 142 208 
3 297 258 263 
3 295 170 167 
3 2 1 249 
3 296 247 1 
3 152 128 301 
3 302 303 177 
3 2 280 300 
3 304 243 127 
3 152 250 156 
3 302 177 135 
3 2 300 3 
3 304 229 210 
3 137 301 126 
3 297 305 163 
3 302 189 303 
3 220 284 223 
3 304 127 229 
3 137 298 143 
3 302 135 189 
3 282 284 220 
3 304 210 243 
3 137 133 298 
3 163 167 297 
3 282 249 247 
3 306 211 225 
3 137 152 301 
3 307 308 309 
3 282 2 249 
3 306 238 222 
3 248 250 152 
3 310 261 132 
3 282 276 284 
3 306 225 238 
3 248 143 208 
3 310 274 261 
3 307 91 99 
3 311 226 106 
3 306 222 211 
3 310 132 124 
3 312 280 220 
3 313 276 282 
3 310 124 274 
3 307 90 91 
3 273 314 15 
3 313 282 247 
3 273 280 312 
3 313 222 276 
3 219 273 312 
3 313 247 222 
3 102 64 103 
3 307 309 90 
3 219 312 220 
3 315 15 299 
3 102 316 317 
3 219 226 311 
3 315 299 280 
3 102 93 316 
3 136 205 138 
3 318 102 317 
3 107 311 106 
3 315 280 273 
3 318 64 102 
3 107 219 311 
3 315 273 15 
3 318 317 319 
3 107 83 320 
3 321 264 246 
3 318 48 47 
3 68 314 273 
3 321 246 322 
3 318 319 48 
3 68 16 314 
3 321 322 45 
3 90 89 91 
3 323 88 66 
3 68 107 320 
3 321 45 264 
3 90 309 98 
3 323 113 92 
3 68 320 72 
3 324 240 242 
3 323 92 88 
3 264 45 325 
3 324 242 238 
3 323 66 113 
3 235 326 264 
3 324 230 240 
3 186 327 51 
3 324 238 230 
3 328 291 278 
3 329 29 25 
3 260 264 325 
3 83 330 84 
3 328 278 158 
3 260 327 186 
3 331 146 332 
3 72 320 83 
3 78 81 333 
3 328 158 172 
3 329 25 78 
3 260 52 327 
3 331 214 213 
3 77 84 330 
3 78 25 24 
3 334 198 289 
3 328 172 291 
3 260 325 42 
3 77 190 116 
3 335 196 201 
3 329 78 333 
3 205 142 138 
3 139 138 336 
3 213 146 331 
3 80 330 83 
3 334 286 200 
3 335 230 197 
3 329 333 337 
3 253 139 336 
3 80 77 330 
3 335 197 196 
3 253 336 148 
3 80 290 79 
3 335 201 230 
3 188 189 338 
3 76 190 77 
3 71 70 32 
3 339 153 158 
3 188 338 139 
3 76 79 213 
3 71 340 341 
3 111 123 112 
3 339 240 154 
3 342 23 343 
3 344 54 20 
3 4 3 345 
3 65 84 114 
3 71 341 73 
3 265 126 121 
3 200 196 334 
3 339 158 240 
3 342 343 34 
3 19 344 20 
3 234 326 235 
3 66 65 114 
3 96 101 128 
3 339 154 153 
3 342 34 69 
3 22 58 19 
3 246 326 234 
3 66 103 64 
3 148 336 138 
3 196 198 334 
3 346 197 225 
3 342 69 23 
3 246 345 322 
3 347 206 205 
3 348 65 7 
3 133 148 298 
3 349 171 153 
3 346 229 232 
3 350 32 351 
3 246 264 326 
3 348 72 65 
3 256 261 352 
3 349 160 164 
3 346 232 197 
3 350 351 353 
3 246 4 345 
3 136 166 347 
3 318 47 64 
3 256 352 133 
3 349 153 160 
3 346 225 229 
3 350 353 340 
3 354 188 237 
3 205 136 347 
3 47 7 64 
3 355 356 261 
3 349 164 171 
3 357 358 359 
3 350 71 32 
3 354 186 188 
3 347 166 165 
3 159 96 128 
3 255 270 123 
3 357 360 361 
3 350 340 71 
3 354 235 186 
3 159 156 187 
3 274 355 261 
3 357 361 358 
3 354 237 235 
3 274 270 255 
3 357 359 175 
3 362 21 38 
3 363 237 253 
3 69 34 70 
3 269 355 274 
3 357 175 360 
3 362 22 21 
3 363 253 352 
3 69 24 23 
3 269 356 355 
3 364 365 164 
3 366 58 57 
3 11 60 12 
3 363 352 239 
3 13 367 17 
3 363 239 237 
3 364 163 305 
3 368 344 19 
3 13 12 367 
3 369 356 245 
3 199 187 182 
3 146 145 370 
3 369 245 234 
3 199 371 217 
3 146 213 79 
3 369 234 239 
3 199 194 371 
3 19 58 366 
3 198 197 232 
3 369 239 356 
3 168 258 169 
3 59 58 22 
3 271 201 200 
3 372 245 268 
3 168 184 266 
3 59 12 60 
3 359 370 175 
3 164 163 364 
3 154 236 201 
3 180 195 182 
3 372 4 245 
3 359 146 370 
3 19 366 368 
3 161 271 176 
3 372 268 1 
3 373 22 36 
3 372 1 4 
3 373 12 59 
3 40 41 46 
3 365 360 164 
3 373 59 22 
3 155 154 161 
3 46 44 374 
3 373 36 12 
3 175 174 360 
3 36 367 12 
3 375 55 31 
3 361 360 365 
3 376 269 274 
3 157 172 158 
3 183 228 179 
3 36 17 367 
3 52 55 375 
3 376 274 255 
3 36 22 362 
3 51 327 52 
3 376 215 269 
3 377 46 374 
3 36 362 38 
3 51 378 189 
3 376 255 215 
3 6 348 7 
3 51 50 378 
3 379 239 352 
3 377 62 61 
3 6 72 348 
3 70 34 32 
3 33 375 31 
3 379 261 356 
3 8 7 47 
3 33 52 375 
3 379 352 261 
3 11 40 46 
3 293 172 145 
3 47 41 8 
3 156 250 183 
3 380 20 55 
3 379 356 239 
3 332 146 359 
3 11 46 377 
3 9 40 11 
3 178 187 156 
3 170 161 176 
3 381 148 133 
3 21 20 380 
3 61 60 11 
3 9 8 40 
3 128 126 301 
3 170 169 167 
3 381 352 253 
3 42 325 45 
3 61 11 377 
3 351 382 54 
3 383 116 113 
3 135 177 166 
3 381 133 352 
3 42 380 55 
3 332 359 358 
3 351 384 353 
3 383 84 77 
3 135 166 136 
3 381 253 148 
3 42 21 380 
3 351 32 382 
3 383 77 116 
3 135 338 189 
3 385 111 243 
3 386 322 37 
3 100 121 101 
3 368 366 387 
3 383 113 84 
3 135 139 338 
3 385 255 123 
3 386 38 45 
3 368 387 388 
3 88 92 89 
3 385 123 111 
3 386 37 38 
3 368 54 344 
3 88 103 66 
3 385 243 255 
3 386 45 322 
3 389 299 37 
3 343 28 140 
3 390 268 245 
3 382 31 54 
3 391 17 37 
3 389 322 3 
3 392 9 13 
3 343 50 393 
3 390 245 356 
3 382 32 31 
3 174 164 360 
3 391 37 299 
3 389 3 299 
3 392 6 9 
3 343 393 34 
3 390 269 268 
3 393 50 33 
3 15 17 391 
3 389 37 322 
3 392 13 16 
3 343 23 28 
3 394 42 55 
3 390 356 269 
3 393 33 34 
3 15 391 299 
3 3 300 299 
3 392 16 6 
3 394 52 260 
3 303 189 378 
3 314 16 15 
3 345 3 322 
3 394 260 42 
3 303 140 147 
3 225 197 231 
3 394 55 52 
3 370 145 175 
3 303 147 177 
3 238 225 231 
3 303 378 50 
3 238 277 222 
3 395 343 140 
3 395 140 303 
3 395 303 50 
3 395 50 343 
3 396 388 384 
3 396 351 54 
3 396 384 351 
3 396 368 388 
3 396 54 368 

CELL_TYPES 707
5
5
5
5
5
5
5
5
5
5
5
5
5
5
5
5
5
5
5
5
5
5
5
5
5
5
5
5
5
5
5
5
5
5
5
5
5
5
5
5
5
5
5
5
5
5
5
5
5
5
5
5
5
5
5
5
5
5
5
5
5
5
5
5
5
5
5
5
5
5
5
5
5
5
5
5
5
5
5
5
5
5
5
5
5
5
5
5
5
5
5
5
5
5
5
5
5
5
5
5
5
5
5
5
5
5
5
5
5
5
5
5
5
5
5
5
5
5
5
5
5
5
5
5
5
5
5
5
5
5
5
5
5
5
5
5
5
5
5
5
5
5
5
5
5
5
5
5
5
5
5
5
5
5
5
5
5
5
5
5
5
5
5
5
5
5
5
5
5
5
5
5
5
5
5
5
5
5
5
5
5
5
5
5
5
5
5
5
5
5
5
5
5
5
5
5
5
5
5
5
5
5
5
5
5
5
5
5
5
5
5
5
5
5
5
5
5
5
5
5
5
5
5
5
5
5
5
5
5
5
5
5
5
5
5
5
5
5
5
5
5
5
5
5
5
5
5
5
5
5
5
5
5
5
5
5
5
5
5
5
5
5
5
5
5
5
5
5
5
5
5
5
5
5
5
5
5
5
5
5
5
5
5
5
5
5
5
5
5
5
5
5
5
5
5
5
5
5
5
5
5
5
5
5
5
5
5
5
5
5
5
5
5
5
5
5
5
5
5
5
5
5
5
5
5
5
5
5
5
5
5
5
5
5
5
5
5
5
5
5
5
5
5
5
5
5
5
5
5
5
5
5
5
5
5
5
5
5
5
5
5
5
5
5
5
5
5
5
5
5
5
5
5
5
5
5
5
5
5
5
5
5
5
5
5
5
5
5
5
5
5
5
5
5
5
5
5
5
5
5
5
5
5
5
5
5
5
5
5
5
5
5
5
5
5
5
5
5
5
5
5
5
5
5
5
5
5
5
5
5
5
5
5
5
5
5
5
5
5
5
5
5
5
5
5
5
5
5
5
5
5
5
5
5
5
5
5
5
5
5
5
5
5
5
5
5
5
5
5
5
5
5
5
5
5
5
5
5
5
5
5
5
5
5
5
5
5
5
5
5
5
5
5
5
5
5
5
5
5
5
5
5
5
5
5
5
5
5
5
5
5
5
5
5
5
5
5
5
5
5
5
5
5
5
5
5
5
5
5
5
5
5
5
5
5
5
5
5
5
5
5
5
5
5
5
5
5
5
5
5
5
5
5
5
5
5
5
5
5
5
5
5
5
5
5
5
5
5
5
5
5
5
5
5
5
5
5
5
5
5
5
5
5
5
5
5
5
5
5
5
5
5
5
5
5
5
5
5
5
5
5
5
5
5
5
5
5
5
5
5
5
5
5
5
5
5
5
5
5
5
5
5
5
5
5
5
5
5
5
5
5
5
5
5
5
5
5
5
5
5
5
5
5
5
5
5
5
5
5
5
5
5
5
5
5
5
5
5
5
5
5
5
5
5
5
5
5
5
5
5
5
5
5
5
5
5
5
5
5
5
5
5
5
5
5
5
5
5
5
5
5
5
5
5
5
5
5
5
5
5
5
5
5
5
5
5
5

POINT_DATA 397
SCALARS matrix_pressure float
LOOKUP_TABLE default
5.500000e+06 4.981818e+06 5.500000e+06 6.018182e+06 
5.500000e+06 8.609091e+06 8.090909e+06 8.609091e+06 
9.135489e+06 8.609091e+06 8.609091e+06 9.127273e+06 
8.609091e+06 8.090909e+06 7.572727e+06 7.054545e+06 
7.572727e+06 7.572727e+06 8.609091e+06 9.163072e+06 
8.609091e+06 8.090909e+06 8.609091e+06 8.609091e+06 
9.171395e+06 9.127273e+06 8.609091e+06 8.090909e+06 
8.090680e+06 9.127273e+06 8.609091e+06 8.609091e+06 
9.127273e+06 8.090909e+06 8.609091e+06 7.572727e+06 
8.090909e+06 7.054545e+06 7.572727e+06 7.572727e+06 
9.127273e+06 9.612208e+06 7.572727e+06 1.000000e+07 
1.000000e+07 7.054545e+06 9.646533e+06 9.127273e+06 
1.000000e+07 7.572727e+06 7.572727e+06 7.054545e+06 
7.572727e+06 8.609091e+06 9.127273e+06 8.090909e+06 
1.000000e+07 1.000000e+07 9.394916e+06 9.127273e+06 
9.196687e+06 9.646483e+06 1.000000e+07 8.609091e+06 
9.130105e+06 8.090909e+06 8.609091e+06 7.572727e+06 
7.054545e+06 9.127273e+06 9.159372e+06 9.629904e+06 
7.572727e+06 1.000000e+07 1.000000e+07 6.536364e+06 
6.536364e+06 7.054545e+06 9.524970e+06 6.018182e+06 
6.536364e+06 1.000000e+07 7.572727e+06 7.054545e+06 
7.572727e+06 8.609091e+06 8.109978e+06 8.090909e+06 
9.127273e+06 9.144031e+06 9.647636e+06 9.127273e+06 
8.609091e+06 1.000000e+07 8.090909e+06 1.000000e+06 
1.598576e+06 1.000000e+06 1.000000e+07 9.127273e+06 
1.617524e+06 1.872727e+06 9.621438e+06 9.174916e+06 
1.000000e+06 6.536364e+06 6.018182e+06 6.536364e+06 
1.000000e+06 1.000000e+06 1.637744e+06 1.872727e+06 
1.628084e+06 8.090909e+06 8.090909e+06 1.000000e+06 
7.572727e+06 1.000000e+06 1.000000e+06 1.356640e+06 
2.390909e+06 2.390909e+06 1.872727e+06 2.390909e+06 
2.909091e+06 2.390909e+06 2.909091e+06 1.872727e+06 
2.390909e+06 1.855374e+06 7.507514e+06 3.427273e+06 
3.427273e+06 3.945455e+06 5.500000e+06 6.018182e+06 
5.500000e+06 3.427273e+06 4.981818e+06 5.500000e+06 
7.572727e+06 4.463636e+06 4.463636e+06 3.945455e+06 
5.500000e+06 4.981818e+06 5.494790e+06 7.040547e+06 
4.463636e+06 5.500000e+06 7.054545e+06 2.390909e+06 
2.909091e+06 3.427273e+06 2.909091e+06 2.909091e+06 
2.390909e+06 3.945455e+06 3.945455e+06 1.872727e+06 
2.909091e+06 2.390909e+06 6.500227e+06 2.900004e+06 
3.430703e+06 6.018182e+06 5.995208e+06 2.390909e+06 
1.360956e+06 1.872727e+06 1.872727e+06 3.945455e+06 
4.463636e+06 1.000000e+06 3.945455e+06 4.463636e+06 
1.630020e+06 6.536364e+06 2.349615e+06 2.621449e+06 
2.135041e+06 1.000000e+06 1.872727e+06 2.917156e+06 
1.000000e+06 6.536364e+06 6.536364e+06 1.869303e+06 
6.018182e+06 6.536364e+06 7.106779e+06 7.032167e+06 
1.400496e+06 1.000000e+06 1.000000e+06 1.588763e+06 
1.872727e+06 2.390909e+06 1.604124e+06 1.415500e+06 
1.712129e+06 2.390909e+06 7.572272e+06 7.054545e+06 
4.398765e+06 4.961641e+06 4.981818e+06 3.945455e+06 
3.936733e+06 3.427273e+06 2.909091e+06 3.427273e+06 
6.553987e+06 6.018251e+06 6.018182e+06 3.427273e+06 
3.945455e+06 1.000000e+06 5.500000e+06 6.018182e+06 
5.500000e+06 3.945455e+06 3.945455e+06 4.981818e+06 
2.909091e+06 2.909091e+06 5.500000e+06 3.427273e+06 
2.909091e+06 2.390909e+06 2.909091e+06 2.909091e+06 
1.854194e+06 5.500000e+06 5.500000e+06 6.018182e+06 
2.909091e+06 5.500000e+06 3.427273e+06 4.981818e+06 
3.427273e+06 3.945455e+06 3.945455e+06 2.390909e+06 
5.500000e+06 4.981818e+06 6.018182e+06 4.463636e+06 
3.427273e+06 4.981818e+06 2.909252e+06 5.500000e+06 
4.463636e+06 4.981818e+06 2.909091e+06 2.909091e+06 
3.945455e+06 1.426845e+06 1.872727e+06 6.536364e+06 
7.054545e+06 3.945455e+06 2.390909e+06 1.872727e+06 
6.536364e+06 2.909091e+06 1.000000e+06 3.945455e+06 
4.463636e+06 3.945455e+06 2.909091e+06 1.872727e+06 
6.536364e+06 6.536364e+06 3.427273e+06 1.000000e+06 
4.463636e+06 3.945455e+06 4.463636e+06 5.500000e+06 
6.018182e+06 3.427273e+06 4.981818e+06 1.000000e+06 
4.981818e+06 1.000000e+06 1.000000e+06 4.981818e+06 
5.500000e+06 1.000000e+06 6.018182e+06 4.981818e+06 
1.000000e+06 4.981818e+06 4.463636e+06 2.390909e+06 
4.463636e+06 2.390909e+06 3.945455e+06 6.536364e+06 
6.018182e+06 2.909091e+06 6.536364e+06 7.054545e+06 
2.390909e+06 2.909091e+06 3.427273e+06 9.606655e+06 
1.000000e+07 1.000000e+07 3.427273e+06 6.018182e+06 
6.018182e+06 4.463636e+06 7.054545e+06 6.536364e+06 
1.000000e+07 1.000000e+07 9.647435e+06 1.000000e+07 
7.054545e+06 6.536364e+06 6.536364e+06 8.609091e+06 
3.427273e+06 7.054545e+06 6.018182e+06 7.054545e+06 
4.463636e+06 9.611408e+06 7.054545e+06 5.542964e+06 
5.208251e+06 1.000000e+07 1.000000e+06 2.390909e+06 
4.981818e+06 1.000000e+07 6.018182e+06 3.427273e+06 
1.000000e+07 1.000000e+07 8.609091e+06 8.090909e+06 
9.175207e+06 6.018182e+06 2.390909e+06 5.434996e+06 
8.090909e+06 3.427273e+06 9.645455e+06 9.645455e+06 
4.463636e+06 1.000000e+07 6.018182e+06 3.945455e+06 
4.463636e+06 4.463636e+06 4.709474e+06 4.959627e+06 
3.966412e+06 4.216829e+06 8.090909e+06 4.981818e+06 
3.390699e+06 3.733726e+06 1.000000e+07 8.090909e+06 
9.619837e+06 4.981818e+06 4.981818e+06 1.000000e+06 
4.981818e+06 8.609091e+06 1.000000e+07 8.090909e+06 
3.427273e+06 1.000000e+07 7.054545e+06 4.463636e+06 
8.090909e+06 4.463636e+06 9.127273e+06 7.572727e+06 
1.000000e+07 2.390909e+06 7.054545e+06 1.000000e+07 
1.000000e+07 6.536364e+06 4.463636e+06 7.054545e+06 
8.090909e+06 8.090909e+06 7.572727e+06 7.572727e+06 
9.645455e+06 
